<VTKFile type="PolyData">
<PolyData>
<Piece NumberOfPoints="9980" NumberOfVerts="9980" NumberOfLines="0" NumberOfStrips="0" NumberOfPolys="0">
<PointData>
<DataArray type="Float64" Name="Pressure" format="ascii">
 41948.575574 40112.209415 38168.661910 37396.822439 37760.751371 38276.038562 38068.463414 37230.618613 37032.012214 36993.058416 36751.484054 36491.447957 36534.188453 36647.883582 36177.400697 36044.836704 36727.838291 37599.608850 37144.529565 37380.817200 38257.427278 38436.336936 38090.842109 37602.369885 37562.164574 36841.351832 36525.384526 36455.671259 36351.368456 36261.229494 36091.658800 35962.211441 35839.597709 35672.810684 35463.381484 35299.344796 35209.258186 35140.508111 35023.658990 34825.200616 34585.784578 34365.546550 34196.580357 34065.526450 33929.697429 33759.116370 33544.207824 33293.315533 33018.348415 32726.136604 32421.249095 32106.644111 31788.086867 31472.043741 31161.668921 30855.246563 30548.927024 30241.999333 29935.485938 29627.699532 29315.751923 29000.817350 28686.389195 28372.496235 28056.250354 27735.349633 27407.392029 27069.005124 26719.053751 26360.745378 25999.373203 25640.239243 25287.984126 24945.758699 24615.265954 24297.580183 23993.723216 23704.644532 23430.829059 23171.578740 22925.017421 22689.051151 22461.294004 22238.733484 22017.917506 21795.503620 21569.012133 21337.474123 21101.534406 20863.095868 20624.866648 20389.871245 20160.938572 19940.284079 19729.283115 19528.459340 19337.646750 19156.245129 18983.485050 18818.639230 18661.142407 18510.616536 18366.837716 18229.685354 18099.095414 17975.028326 17857.453956 17746.348250 17641.694095 17543.479259 17451.687788 17366.285173 17287.200387 17214.309417 17147.424178 17086.289425 17030.588253 16979.954550 16933.990374 16892.285231 16854.433799 16820.049850 16788.775585 16760.286639 16734.293737 16710.542310 16688.811416 16668.913010 16650.692204 16634.028644 16618.838670 16605.077542 16592.740788 16581.863675 16572.517900 16564.804868 16558.845341 16554.765728 16552.681866 16552.681635 16554.808227 16559.046111 16565.311738 16573.450705 16583.242488 16594.412907 16606.653478 16619.645712 16633.087560 16646.718655 16660.340930 16673.831637 16687.146673 16700.313438 16713.413875 16726.559821 16739.863998 16753.410740 16767.230731 16781.283543 16795.450620 16809.539746 16823.300209 16836.446102 16848.683963 16859.740334 16869.385128 16877.447747 16883.824565 16888.478247 16891.431026 16892.755158 16892.563972 16891.006251 16888.265265 16884.561874 16880.159318 16875.365895 16870.531216 16866.032198 16862.246584 16859.514279 16858.089885 16858.092909 16859.464607 16861.941362 16865.053443 16868.154918 16870.484613 16871.252484 16869.739156 16865.392032 16857.902441 16847.246243 16833.682521 16817.705708 16799.957804 16781.119366 16761.783733 16742.355940 16722.966007 16703.440325 16683.319604 16661.921366 16638.482069 16612.260355 16582.749509 16549.721531 16513.374145 16474.267168 16433.237550 16391.341602 16349.476397 16308.533562 16268.859086 16230.705386 16193.726505 16157.561489 16121.574685 16085.066208 16047.717176 16008.749840 15968.392008 15926.103524 15882.377952 15836.953495 15790.375304 15742.330877 15693.016402 15642.653671 15590.291360 15536.458243 15480.746810 15422.735092 15361.245462 15299.082783 15233.383389 15164.942910 15093.809522 15020.982311 14957.803825 14931.077239 14917.925308 15031.651680 15394.921873 15889.267905 16356.920104 16500.239846 16723.173767 16687.166171 16267.737659 15393.543539 13982.530674 12215.342651 9523.392484 7607.060535 39933.127583 36607.333558 32175.573853 30081.635968 30661.300529 31169.282163 30554.784643 28169.207569 29110.750597 28072.927644 27291.685629 28579.690214 28743.693011 30087.062423 28960.666426 29729.687068 29255.306824 32844.324110 30430.585913 29071.017244 32439.071839 30530.166789 32772.368561 31848.560324 35676.463346 33392.837059 33474.559057 33818.303830 33156.932460 33490.201246 32776.004327 32658.978404 32753.375345 33142.084779 33198.538467 33081.279170 33112.833078 33487.273462 34093.607908 34495.713191 34493.531088 34197.669672 33926.524978 33907.651993 34093.599243 34353.227623 34545.835386 34629.251569 34624.973690 34562.440728 34472.111426 34356.018191 34214.994270 34040.255154 33835.791112 33609.039337 33373.896942 33156.588350 32977.412218 32837.867017 32720.439957 32609.820157 32514.901447 32431.730627 32359.674295 32308.029147 32278.078190 32255.786538 32218.254972 32138.465233 32002.643849 31808.146546 31565.854223 31288.917109 30986.421885 30664.114815 30327.242332 29985.281858 29652.604759 29344.151295 29066.111944 28822.238451 28618.996351 28460.818578 28346.216200 28266.048032 28203.770999 28139.740449 28056.669891 27941.785285 27788.285627 27596.462404 27373.104575 27129.265331 26877.269928 26627.958778 26388.906729 26163.864262 25953.242063 25755.253359 25567.231371 25386.685204 25211.767180 25041.370823 24874.994690 24712.506256 24553.928321 24399.307873 24248.686839 24102.146243 23959.874858 23822.218454 23689.681374 23562.877593 23442.445062 23328.945907 23222.776989 23124.107499 23032.853203 22948.695788 22871.140426 22799.592186 22733.434963 22672.101594 22615.127913 22562.187534 22513.107482 22467.866961 22426.582560 22389.483292 22356.878306 22329.119408 22306.559886 22289.510947 22278.197261 22272.713828 22272.987288 22278.745785 22289.502062 22304.554472 22323.009576 22343.827955 22365.891877 22388.089884 22409.409793 22429.028897 22446.388861 22461.243606 22473.671311 22484.046330 22492.972501 22501.185198 22509.434504 22518.365315 22528.411432 22539.719470 22552.114670 22565.114858 22577.991402 22589.868259 22599.843370 22607.112228 22611.072650 22611.393087 22608.033943 22601.220879 22591.379047 22579.045229 22564.779071 22549.093971 22532.422596 22515.122768 22497.518643 22479.962217 22462.893649 22446.877300 22432.594271 22420.780942 22412.114915 22407.062800 22405.716202 22407.650438 22411.843764 22416.689707 22420.122227 22419.853251 22413.693663 22399.909332 22377.541464 22346.621629 22308.234972 22264.389850 22217.735361 22171.144928 22127.253674 22088.053075 22054.529638 22026.562294 22002.876961 21981.307404 21959.149813 21933.572809 21902.329873 21863.918874 21818.425166 21767.060622 21712.621971 21658.612546 21608.548082 21565.931921 21531.877737 21507.392829 21489.906758 21477.515306 21465.846539 21452.078830 21433.293970 21407.274066 21375.170122 21334.347680 21290.350957 21239.929537 21189.194415 21136.178710 21084.027095 21031.253136 20978.602940 20925.704017 20867.833556 20811.320838 20747.719944 20680.708273 20609.668030 20539.556190 20458.108876 20383.465722 20314.651445 20238.596002 20175.264313 20112.279332 20042.133433 20201.541284 20389.595647 20428.663981 21522.392986 22130.474382 23671.133921 22791.167762 23211.076753 23851.650592 24529.075533 24094.030421 18972.689693 16364.368732 11736.883302 7722.381458 38095.796275 32019.214530 22824.177308 19873.598089 21864.412055 22277.214976 22348.076895 18844.445080 20811.220628 20151.077158 18240.889013 21232.139704 22057.778225 23302.455059 22427.430148 23877.992324 20780.627177 27575.905782 24254.446643 21049.089488 26412.882810 24424.588865 25765.869933 25500.865381 31315.119715 30007.534831 29614.902532 29990.129239 28411.620918 28680.830928 27395.590155 26706.867306 27214.812828 28714.826282 29819.018451 29935.362726 29746.172796 30453.431192 32220.474195 33918.680049 34615.925402 34111.609506 33351.138550 33068.576438 33358.349451 34001.620323 34587.796880 35021.017432 35277.614386 35419.121871 35515.837053 35596.853685 35746.693505 35883.614218 35931.436231 35803.240831 35493.439871 35069.064477 34578.286411 34109.054866 33836.384707 33866.945866 34058.238995 34255.883917 34423.539869 34590.278151 34778.307741 35038.881558 35493.256460 36174.064361 36900.207159 37501.008569 37894.762437 38088.958201 38107.905572 37941.615173 37575.628553 37040.412401 36420.415419 35828.188016 35291.810740 34797.605352 34364.026615 34029.298541 33832.183589 33797.464268 33917.747260 34152.451369 34443.817973 34729.178211 34947.257581 35052.783662 35026.609556 34877.110270 34633.736306 34335.977253 34022.105418 33721.074362 33448.949897 33209.654744 32998.757851 32808.097409 32629.403002 32456.332034 32285.008466 32113.593789 31941.442188 31768.330535 31593.883406 31417.457016 31238.365338 31056.250444 30871.406075 30684.929152 30498.665909 30314.972303 30136.367401 29965.181279 29803.232385 29651.626426 29510.744665 29380.366716 29259.874154 29148.484336 29045.470559 28950.336087 28862.922981 28783.449323 28712.478611 28650.832066 28599.458596 28559.278746 28531.019181 28515.053752 28511.266656 28518.952518 28536.767325 28562.742066 28594.367237 28628.750128 28662.838161 28693.691022 28718.773520 28736.232399 28745.116164 28745.499585 28738.484533 28726.065462 28710.868306 28695.792330 28683.601514 28676.522366 28675.906974 28682.013178 28693.939032 28709.727592 28726.633054 28741.513175 28751.289754 28753.403307 28746.184294 28729.074363 28702.656894 28668.492668 28628.796356 28586.023419 28542.456456 28499.879746 28459.409858 28421.513187 28386.196125 28353.310773 28322.888860 28295.406230 28271.893196 28253.839459 28242.889078 28240.371697 28246.759718 28261.170852 28281.045655 28302.112335 28318.716832 28324.526243 28313.528478 28281.183856 28225.470179 28147.605661 28052.228195 27946.878164 27840.982757 27744.267483 27665.188093 27609.512462 27579.161239 27572.233235 27582.781946 27602.385147 27621.052858 27628.939552 27618.753602 27585.384270 27530.106297 27456.436084 27374.886708 27296.506490 27233.397886 27197.963309 27191.182451 27219.236716 27266.321941 27329.039284 27384.709633 27425.516934 27438.425587 27417.197912 27372.193317 27287.665495 27206.925138 27090.953929 26999.892300 26894.532317 26807.799924 26730.534833 26654.602712 26593.425809 26515.636974 26458.138230 26357.155138 26291.188323 26173.874565 26086.241467 25957.763138 25886.055255 25754.007885 25698.126786 25622.323131 25582.898274 25524.395616 25525.436496 25356.391723 25707.017448 25935.283942 25576.980688 26590.338564 26658.958455 28113.053263 27577.105579 28498.208645 28208.993029 30357.665526 30830.791136 23282.616082 21407.319223 14402.736165 6881.141315 37165.408562 29533.369183 18689.554829 17146.025597 20889.764965 21958.748974 20952.994646 20253.405938 22836.369436 19621.597737 23579.556182 22964.634098 21567.664152 25562.030646 23400.380469 23409.825712 23557.643610 22579.436395 22574.583730 25494.580868 27689.201166 26832.031841 29197.078459 28375.374068 28554.517668 27760.572139 27629.560362 27264.903718 27635.741331 28413.775146 29340.810000 30231.910766 30790.434603 31742.013311 32369.982088 32498.025714 32495.818837 32504.258927 33066.136788 33605.565939 33992.882111 34204.917517 34194.850587 34275.275940 34335.932117 34435.177113 34576.578366 34707.455746 34969.025157 35314.446470 35706.078548 36089.724806 36257.508824 36119.588734 35701.997752 35170.661726 34794.135266 34753.254008 35026.113688 35473.025601 35893.577068 36138.215562 36125.942105 35901.649961 35633.254378 35516.402982 35718.343372 36248.316298 36962.828585 37652.589072 38172.988049 38456.894652 38517.750226 38389.864044 38094.986419 37663.892115 37181.345047 36750.869736 36408.142461 36115.557311 35818.852557 35499.572796 35164.848844 34837.005504 34555.424813 34363.708765 34289.503921 34336.489581 34486.237434 34696.052608 34908.089508 35065.895040 35128.497379 35078.896005 34924.791625 34692.308761 34415.998041 34128.954866 33855.636139 33608.743418 33390.235546 33195.029192 33015.147734 32842.928171 32672.732046 32501.358343 32327.652637 32151.674236 31973.826307 31794.303091 31612.967332 31429.550538 31243.983648 31056.698987 30868.781377 30681.921707 30498.226026 30319.951004 30149.195860 29987.621454 29836.295412 29695.686693 29565.772480 29446.213875 29336.554902 29236.404180 29145.569107 29064.125314 28992.416712 28930.991914 28880.490456 28841.496895 28814.383133 28799.159685 28795.355597 28801.944559 28817.331292 28839.407234 28865.677609 28893.453159 28920.089810 28943.249735 28961.149680 28972.759204 28977.914435 28977.322592 28972.447858 28965.287740 28958.067392 28952.893936 28951.421019 28954.574267 28962.380997 28973.933525 28987.496406 29000.746056 29011.109189 29016.147545 29013.924602 29003.288776 28984.019643 28956.808366 28923.076903 28884.675720 28843.527792 28801.300135 28759.178333 28717.795006 28677.325152 28637.718919 28599.006005 28561.584872 28526.409790 28495.009675 28469.310068 28451.274551 28442.424490 28443.329539 28453.176588 28469.524682 28488.336154 28504.325726 28511.631945 28504.727873 28479.413086 28433.739794 28368.562329 28287.652758 28197.266962 28105.051154 28018.970637 27945.688823 27889.615942 27852.309447 27831.722237 27823.754376 27821.354390 27817.443103 27804.785955 27777.151601 27732.878664 27669.892466 27595.637252 27513.663050 27437.294715 27374.621447 27332.046932 27320.392663 27324.804205 27357.456017 27385.179887 27418.796452 27428.310304 27423.574380 27392.805954 27338.424701 27287.257276 27188.435065 27147.847742 27033.988058 26996.920827 26914.469209 26862.657046 26816.447133 26751.357966 26715.080722 26628.754366 26592.136116 26472.686844 26439.903811 26285.039989 26256.545507 26095.165086 26084.939958 25927.187523 25979.612998 25811.303414 25897.698089 25691.712874 25858.132030 25630.490506 25732.242973 25475.466733 25822.674556 25534.141930 25779.175853 25422.157516 25295.594659 28081.322227 25327.760714 25890.005515 28460.734274 26481.788286 25242.019439 13124.476595 6007.345108 36302.382207 28465.021727 18667.308349 22806.591798 23956.121496 19509.821333 22113.259086 19600.235799 23577.141886 22226.548092 23046.900559 22438.489051 22535.206961 22193.271568 23441.407596 23599.453075 23980.060094 23841.855317 23807.899352 24635.740224 27988.758388 26718.959481 28045.925052 27766.061670 28822.864257 28106.970947 28471.020420 28735.224738 29130.643557 28826.769077 28623.333808 29197.897090 29885.059307 30708.247189 30677.053427 30805.629655 31613.626931 32130.816025 32482.848934 32249.974650 32107.382098 32303.690150 32544.670459 32971.751935 33241.765238 33475.581921 33751.740922 33950.941149 34196.384760 34356.885142 34440.876196 34509.490539 34454.779314 34307.579168 34086.813849 33859.275068 33788.306363 33871.977223 34025.136395 34190.243910 34356.812965 34548.938187 34712.270624 34771.183642 34773.672035 34840.872899 35010.902532 35242.245505 35503.324334 35753.193861 35929.602922 36018.735051 36047.637738 36010.647858 35855.502801 35558.536467 35182.697944 34812.673221 34478.228718 34173.675351 33903.000772 33677.038024 33495.527554 33346.313666 33217.696136 33106.288921 33015.701514 32954.612744 32930.684713 32941.908473 32973.925290 33002.523210 33000.353559 32945.343525 32827.117785 32648.976352 32425.396974 32176.808669 31923.632205 31681.325857 31457.966848 31254.683374 31067.859872 30891.828757 30720.962038 30550.884597 30378.902399 30203.914359 30025.933935 29845.556167 29663.586329 29480.869747 29298.281651 29116.792754 28937.521299 28761.723082 28590.725220 28425.846165 28268.299158 28119.070730 27978.831365 27847.914595 27726.362414 27614.018905 27510.646872 27416.041504 27330.119419 27252.968580 27184.852746 27126.171679 27077.384491 27038.907812 27011.003035 26993.667841 26986.546847 26988.874589 26999.461254 27016.727353 27038.788146 27063.582204 27089.031820 27113.217217 27134.542736 27151.872691 27164.617596 27172.757851 27176.800514 27177.673965 27176.573641 27174.778471 27173.461533 27173.519595 27175.444399 27179.253597 27184.491249 27190.297170 27195.532819 27198.941103 27199.311329 27195.620728 27187.131013 27173.430779 27154.428544 27130.312764 27101.500618 27068.595479 27032.364766 26993.738431 26953.817534 26913.875820 26875.336602 26839.712769 26808.506958 26783.078678 26764.492624 26753.365606 26749.728607 26752.921142 26761.532114 26773.405583 26785.736686 26795.260086 26798.555506 26792.435486 26774.340281 26742.769750 26697.486932 26639.648707 26571.786174 26497.296305 26420.484329 26345.612622 26276.682107 26217.247810 26168.698754 26132.182636 26105.341837 26085.414737 26068.025116 26046.743417 26020.018089 25980.807209 25934.460905 25877.870982 25819.659466 25765.014257 25712.998909 25680.683224 25648.091121 25641.289871 25630.997874 25640.119242 25644.140701 25659.945185 25665.576559 25661.168270 25672.087224 25604.334957 25619.075699 25508.914947 25484.895185 25402.765465 25325.883595 25274.373520 25175.351428 25132.616871 25019.098068 24980.527551 24851.623498 24825.039730 24650.228798 24644.085864 24468.288951 24468.018824 24286.198721 24365.031304 24081.208761 24253.657963 23889.018045 24191.713255 23763.784333 24531.163533 23893.632443 25084.618485 24646.610232 26271.844369 25831.064720 26208.759692 23813.999590 22741.758264 22946.196556 27848.186037 28274.651042 19509.877331 9862.215057 5580.790796 34938.262191 27153.769626 19233.730673 17574.156565 19457.188755 20015.089202 20334.834887 18409.391972 21614.839223 21621.775372 20948.672342 22877.143234 22268.297661 24379.471914 22856.850520 24568.069930 22127.066708 25757.239802 23907.810039 25123.613720 24796.611669 26136.040826 26772.690260 27882.849197 28138.882004 28093.167850 27865.788101 26975.775851 26863.955331 27219.025599 27838.273077 28611.056434 28576.154645 29090.763202 30038.400197 31298.729215 32013.654623 31449.745384 31146.506631 31233.447097 31864.240104 32556.266303 32765.096203 32890.413424 32868.730659 32898.093846 33027.439156 33100.458976 33212.928777 33291.081483 33386.799191 33531.887787 33615.188310 33613.846536 33504.488985 33391.654402 33407.550555 33521.283423 33670.557179 33798.544868 33881.346215 33945.342849 34002.048358 34048.287983 34085.269569 34143.813924 34258.826500 34413.257232 34579.451189 34738.674963 34853.110663 34908.666548 34943.520511 34986.408423 35005.638135 34939.821761 34758.865909 34481.089996 34143.604282 33776.889606 33405.106451 33054.577451 32752.613695 32517.067033 32352.249577 32254.018548 32214.209527 32223.201644 32270.456405 32342.654152 32421.948000 32486.515818 32513.965507 32486.569094 32396.072274 32245.766512 32048.931665 31824.556652 31592.116036 31367.094972 31158.490243 30968.687463 30795.161523 30632.944143 30476.754491 30322.224964 30166.376412 30007.581139 29845.203136 29679.183324 29509.753694 29337.330483 29162.547676 28986.345226 28810.019469 28635.182430 28463.633507 28297.184476 28137.479693 27985.843570 27843.189350 27710.007379 27586.427505 27472.333923 27367.503266 27271.736587 27184.961175 27107.286525 27039.008052 26980.560648 26932.431048 26895.042743 26868.629969 26853.118283 26848.028702 26852.420382 26864.883422 26883.588450 26906.393343 26931.000023 26955.146653 26976.813756 26994.418331 27006.968945 27014.157871 27016.373381 27014.625505 27010.390454 27005.390772 27001.338413 26999.674936 27001.345504 27006.640597 27015.130990 27025.708167 27036.725721 27046.220278 27052.176554 27052.793602 27046.710071 27033.155438 27012.009395 26983.769262 26949.441409 26910.383964 26868.132931 26824.242212 26780.161186 26737.163377 26696.328369 26658.568353 26624.681803 26595.410871 26571.476318 26553.565629 26542.256403 26537.868596 26540.259982 26548.597144 26561.158472 26575.246279 26587.256037 26592.976403 26588.100196 26568.852387 26532.765462 26479.195829 26409.726309 26328.286242 26240.423405 26153.159040 26073.336344 26006.818220 25957.983455 25927.089284 25913.097551 25909.844500 25910.399793 25907.060491 25889.994170 25857.946055 25803.696610 25735.986926 25655.674501 25573.729064 25502.300035 25439.659348 25407.583240 25386.522346 25396.773902 25414.121531 25447.506224 25470.593031 25500.969026 25494.118489 25475.870698 25452.426700 25343.474816 25328.546464 25186.874774 25145.267505 25063.169709 24989.554308 24942.244656 24870.272436 24828.574138 24739.542556 24709.381025 24593.305883 24567.907850 24408.547139 24393.974789 24244.393250 24244.165731 24066.790621 24176.235252 23875.694176 24103.058394 23673.018891 24248.231006 23453.659852 24356.697273 23314.013108 24567.722233 23065.792076 23706.240432 25026.178904 24232.535727 25904.929899 25865.373456 26254.485681 23808.647170 25774.095402 17033.710270 8351.520665 4900.278294 32816.371039 24121.774558 17114.946867 19749.997926 19014.264988 19873.132811 21875.352808 20014.271458 20931.439889 18992.217200 20935.802145 20418.054489 21886.891008 22441.914683 20857.965314 21825.821854 20881.654204 22632.292330 23711.456557 25477.260313 23944.521798 26508.137233 27406.202757 26832.063462 27306.768106 27322.233808 27250.178420 27290.721225 27733.101815 27877.268523 28507.823317 28858.164952 28847.468811 29759.274552 30145.309679 29841.021528 29380.066238 29769.994183 30943.344079 31372.307126 31150.785579 30671.155631 30420.929197 30655.054243 31017.884964 31407.227586 31770.161161 32103.905865 32394.165416 32570.541550 32649.870553 32638.279285 32625.200214 32655.071295 32669.265294 32697.086948 32789.427165 32986.623051 33280.830208 33569.090945 33800.070619 33958.869594 34007.346437 33968.042471 33889.933992 33800.935973 33736.808018 33713.833611 33716.098749 33729.238691 33736.342235 33704.783956 33620.827751 33509.787397 33398.406223 33288.745614 33170.957590 33038.944065 32897.286542 32756.768992 32621.668474 32484.792373 32333.027840 32155.408790 31950.664587 31731.609442 31523.052703 31353.877603 31246.693919 31209.092190 31229.879213 31281.509466 31327.742145 31333.965529 31276.654496 31148.702440 30959.098627 30727.800582 30478.399142 30231.438503 30000.298817 29790.183386 29599.607383 29423.187300 29254.481840 29088.034389 28920.360784 28750.019932 28577.089795 28402.435585 28227.081636 28051.851447 27877.296705 27703.830897 27531.935919 27362.325783 27196.003352 27034.202152 26878.247226 26729.388712 26588.659685 26456.792741 26334.207212 26221.058734 26117.329656 26022.933446 25937.807718 25861.976677 25795.572265 25738.812048 25691.939566 25655.138588 25628.436281 25611.611686 25604.125276 25605.082922 25613.243505 25627.073853 25644.848024 25664.780943 25685.179984 25704.593626 25721.934930 25736.560062 25748.288391 25757.359821 25764.335294 25769.955886 25774.982711 25780.042938 25785.506134 25791.410129 25797.447516 25803.013663 25807.306373 25809.457500 25808.670227 25804.333948 25796.093166 25783.857302 25767.752922 25748.035222 25724.987357 25698.840739 25669.744649 25637.800140 25603.154367 25566.132375 25527.369467 25487.902974 25449.188953 25413.025387 25381.384158 25356.173228 25338.964070 25330.724265 25331.592028 25340.726477 25356.256267 25375.347081 25394.410460 25409.433641 25416.445438 25412.048020 25393.888719 25361.136456 25314.565660 25256.504341 25190.613881 25120.909694 25051.791737 24986.751048 24928.132702 24877.700323 24834.267562 24797.455728 24763.773586 24730.037941 24694.082397 24650.030368 24600.744465 24540.849487 24477.526746 24411.907191 24347.180712 24294.823650 24245.106167 24214.705578 24186.959325 24169.458860 24156.703487 24145.517300 24129.797469 24132.247824 24107.765083 24103.368068 24104.094036 24047.470780 24080.543459 24008.177054 24001.955053 23972.633370 23921.619435 23883.945257 23831.456014 23779.905304 23693.699979 23662.835837 23541.211990 23523.528105 23366.205349 23357.829993 23236.324825 23198.706498 23098.914862 23110.524607 22944.097113 22997.316702 22770.119313 23036.044901 22639.550335 23214.764447 22682.437389 23608.191159 23554.554466 23731.943527 22993.969015 25392.078128 23714.025585 25581.293812 23153.581998 24290.303801 21962.498393 19489.500900 8144.133242 4177.711745 31321.702841 23558.896883 16070.718106 17501.305914 19400.720009 20185.332494 16989.622363 20480.861462 19245.129675 19124.607679 21834.550898 20317.218481 21987.067397 19879.909896 22457.482647 20591.370665 24653.128614 21708.612779 24258.645381 23943.853285 24646.755573 25329.936831 25015.368598 26414.268856 27068.942244 27196.564114 27367.685259 27794.003621 27606.617095 27329.600622 27190.551311 27234.386749 28001.612037 28641.557596 28289.266756 28759.139890 29871.316435 30441.524197 29766.009166 28752.410973 28816.987238 29652.646415 30502.367217 30908.689255 30993.746235 31023.234509 31091.111482 31227.090935 31320.701141 31420.578101 31550.713172 31626.582445 31692.330941 31742.906048 31789.036222 31900.114698 32016.577072 32118.519433 32274.271090 32466.904443 32651.324787 32814.157618 32932.140991 32975.496115 32941.639427 32862.187414 32757.910721 32635.642197 32511.023588 32396.197934 32315.699401 32295.912836 32321.945088 32356.474565 32366.704361 32322.851470 32210.469582 32039.742923 31839.291094 31647.699478 31498.224120 31401.799100 31342.648073 31287.670258 31203.634262 31074.209992 30908.169114 30735.191466 30592.332633 30508.009072 30490.499552 30524.934040 30578.870498 30613.582534 30596.536589 30510.522716 30356.576780 30150.585823 29915.974548 29675.857845 29447.368234 29239.293122 29052.672263 28883.207992 28724.210981 28569.102186 28412.968185 28253.104631 28088.780827 27920.593295 27749.757936 27577.577250 27405.176344 27233.477357 27063.312212 26895.562621 26731.245164 26571.507332 26417.546228 26270.489182 26131.281246 26000.613807 25878.909947 25766.363652 25663.016451 25568.848477 25483.860933 25408.131696 25341.833266 25285.210426 25238.522333 25201.959530 25175.550076 25159.070524 25151.977117 25153.370181 25162.000765 25176.323066 25194.589774 25214.980753 25235.749588 25255.368627 25272.652231 25286.840580 25297.632183 25305.161198 25309.924044 25312.667066 25314.251855 25315.516762 25317.152412 25319.605964 25323.024273 25327.240312 25331.800761 25336.026362 25339.091517 25340.107325 25338.193818 25332.533053 25322.403455 25307.204776 25286.488532 25260.007854 25227.792357 25190.239778 25148.201510 25103.029720 25056.554487 25010.972264 24968.648870 24931.864551 24902.546597 24882.039420 24870.951493 24869.095879 24875.514618 24888.562234 24906.014736 24925.185571 24943.059508 24956.440381 24962.172048 24957.421004 24939.949493 24908.507469 24862.964364 24804.438783 24735.415582 24659.100662 24579.826597 24502.046191 24429.961410 24368.136085 24318.321128 24282.573361 24259.071950 24243.684668 24232.522249 24215.281914 24189.821596 24147.385084 24089.506195 24019.438916 23937.787914 23861.371970 23784.321182 23724.502368 23676.836360 23642.637271 23631.493897 23630.024587 23641.394485 23676.879069 23691.214090 23716.157257 23735.483905 23680.809420 23682.977323 23594.057423 23526.912501 23475.645570 23388.747373 23335.168884 23268.406881 23233.100333 23118.663973 23125.681338 22977.761450 22984.070283 22820.777128 22814.349359 22686.473645 22638.418977 22595.971970 22445.649500 22539.798130 22259.481708 22445.588070 22132.519435 22533.714530 21950.597907 22647.885478 22014.411685 22600.488746 22916.767131 22340.799134 22368.638177 23647.728563 25260.260936 22733.808965 24071.808226 24856.510136 16746.646245 7162.395379 3798.167277 30055.867651 22970.738074 15533.285909 19840.414339 18282.435396 18497.608837 19754.465442 18846.660176 19341.556113 21940.786232 19614.510874 20479.047138 19062.405673 20593.620783 21751.020993 23378.468842 20547.128304 22315.414551 22965.404098 21115.648998 25131.018977 23247.572373 26196.749487 26347.150311 26927.765527 26829.168919 27089.832282 26406.629658 26544.979370 26841.039131 27281.992746 28026.788756 28330.213797 28148.446500 28680.903342 29774.341260 29348.644611 28282.315177 28260.527887 29489.470785 30483.821878 30294.001755 29661.061784 29272.842317 29367.821420 29633.616257 29805.376619 29973.957986 30120.400500 30307.407149 30525.512951 30677.781018 30818.414922 30952.853432 31074.407811 31234.560070 31431.726911 31658.411189 31899.613789 32147.594985 32403.715775 32586.112760 32642.698467 32610.430923 32493.365561 32302.744479 32084.728432 31852.219939 31609.330900 31359.252459 31103.131383 30883.752745 30753.606165 30723.243246 30772.101448 30860.002325 30937.577499 30972.917487 30961.085729 30914.857774 30852.096287 30781.549536 30695.238089 30573.660425 30399.196189 30170.067332 29907.057027 29648.782369 29438.086564 29306.171529 29261.269163 29285.972149 29343.438088 29389.567292 29386.544451 29312.962962 29167.382229 28965.025717 28730.021591 28486.839173 28253.982134 28041.273551 27850.396987 27677.427882 27515.933878 27359.578421 27203.696748 27045.793322 26885.234908 26722.547853 26558.694464 26394.570449 26230.803859 26067.805137 25905.950450 25745.774175 25588.082236 25433.952212 25284.635487 25141.406599 25005.412095 24877.560375 24758.473967 24648.504725 24547.796569 24456.371888 24374.216616 24301.343430 24237.820184 24183.759410 24139.272771 24104.400687 24079.031438 24062.825727 24055.162038 24055.115362 24061.477173 24072.818465 24087.590630 24104.252156 24121.403482 24137.909368 24152.988640 24166.255555 24177.704742 24187.641279 24196.567000 24205.041729 24213.542327 24222.342615 24231.433577 24240.496493 24248.932770 24255.944508 24260.650536 24262.215425 24259.965550 24253.468177 24242.557339 24227.303134 24207.936267 24184.753086 24158.033539 24128.002296 24094.850987 24058.820127 24020.318386 23980.041596 23939.049985 23898.771691 23860.920774 23827.341667 23799.810640 23779.831444 23768.456184 23766.146821 23772.675829 23787.060246 23807.523968 23831.503136 23855.736637 23876.457558 23889.744441 23891.999609 23880.435122 23853.637873 23811.787689 23756.720929 23691.879592 23621.370002 23550.013298 23482.175111 23421.059213 23369.589767 23327.388069 23294.026537 23266.223989 23238.358004 23207.189405 23164.033871 23108.737891 23037.781093 22954.005469 22866.183423 22775.285720 22698.073094 22629.341394 22579.832269 22544.718556 22517.327467 22505.905354 22493.892764 22486.428380 22490.287974 22478.305525 22463.885897 22464.434491 22396.765942 22393.579415 22340.654362 22297.195901 22300.002350 22267.375116 22264.323702 22223.440009 22250.653728 22113.635303 22178.262703 22011.891691 22043.439247 21901.894342 21887.139412 21806.768066 21733.066723 21759.552112 21563.503806 21747.642741 21372.991990 21726.619388 21218.218189 21736.834554 21443.853802 21625.304563 21521.932552 217