<VTKFile type="PolyData">
<PolyData>
<Piece NumberOfPoints="2161" NumberOfVerts="2161" NumberOfLines="0" NumberOfStrips="0" NumberOfPolys="0">
<PointData>
<DataArray type="Float64" Name="Pressure" format="ascii">
 38388.983702 40733.266895 42496.208895 44180.389772 45193.389685 45530.036272 45370.730668 45076.715676 44064.274903 41935.463633 40669.844357 39577.719132 38467.626752 37342.896510 36081.805372 34933.435926 33906.534044 32787.198464 31440.804571 29936.841545 28472.688768 27153.211856 25959.749930 24837.512797 23733.845341 22643.445781 21592.553842 20603.247775 19682.723208 18828.990544 18042.239395 17321.973035 16664.188174 16064.819524 15521.777790 15034.399812 14602.606620 14226.171405 13903.840681 13632.859829 13408.994910 13226.909114 13080.755672 12964.745918 12873.538741 12802.439838 12747.456833 12705.261725 12673.107979 12648.735829 12630.283687 12616.212789 12605.246400 12596.322852 12588.561800 12581.243906 12573.804809 12565.844065 12557.148547 12547.727453 12537.852935 12528.096788 12519.350516 12512.814497 12509.943133 12512.337863 12521.589257 12539.082017 12565.790159 12602.099146 12647.694092 12701.543698 12761.989267 12826.930573 12894.065984 12961.146013 13026.212048 13087.712766 13144.646361 13196.491983 13243.120406 13284.913641 13322.014459 13355.266158 13384.522223 13410.101017 13432.209714 13448.756430 13461.421763 13465.423555 13463.158707 13451.346426 13423.232539 13389.612044 13335.015123 13268.903076 13228.191828 13192.322289 13035.098607 12553.734717 11639.418187 9985.298372 7483.871777 5267.624029 4224.439993 4001.170945 37328.175957 37690.092161 37056.345419 39478.354005 38978.025258 39309.056893 41354.703450 41627.504020 43766.940968 38871.201900 39455.443200 38300.942331 37794.027519 37694.849442 35862.230945 34620.844223 34580.731861 35277.681077 35241.516118 33973.672724 32311.367872 30935.213245 30033.871572 29456.501412 28866.063670 28178.133977 27436.036256 26669.485935 25864.289442 25015.256200 24175.101654 23381.585286 22634.854903 21922.931824 21232.048980 20550.393290 19875.570302 19216.977921 18591.008675 18014.989005 17502.721275 17061.017909 16689.772879 16383.878115 16135.463138 15935.751448 15776.291587 15649.576358 15549.217368 15469.874122 15407.090868 15357.134517 15316.877779 15283.740451 15255.685262 15231.256807 15209.647676 15190.771552 15175.317552 15164.754509 15161.250531 15167.475658 15186.267159 15220.160883 15270.828189 15338.502357 15421.519942 15516.123559 15616.653733 15716.181023 15807.509449 15884.356754 15942.393461 15979.894957 15997.816419 15999.132797 15988.201029 15969.212358 15945.670441 15920.252893 15892.126803 15862.915715 15827.112704 15785.015388 15732.453551 15659.737454 15579.910991 15463.985882 15339.554222 15181.233194 14985.533094 14800.099841 14516.841658 14244.535212 13936.858774 13499.245038 13145.959698 12873.396087 12619.561877 11684.106482 11133.181760 10618.679707 8500.085911 5985.944080 3887.158676 3488.162873 35630.249475 33206.560756 29752.918260 31321.649154 26989.331481 30038.954305 31703.824431 29468.338900 34629.179965 30681.980811 33209.865824 33430.284285 34420.054605 35895.857528 31813.514220 29777.075999 31397.580373 35038.734109 36889.646001 35851.268577 34630.134139 33999.645911 34333.646186 35510.587552 36446.469411 37187.807393 37794.126907 38366.629683 38766.742378 38675.676630 38241.424488 37685.774795 37107.647719 36541.929159 35974.651593 35352.952993 34616.937597 33750.400261 32781.176391 31765.871237 30770.040110 29847.846168 29032.456738 28336.322773 27756.488440 27281.015942 26894.319704 26580.805539 26326.621424 26120.174522 25952.007609 25814.473182 25701.457550 25608.260380 25531.635786 25469.939806 25423.295246 25393.667417 25384.739118 25401.482816 25449.358025 25533.119459 25655.311190 25814.641356 26004.565159 26212.515521 26420.248099 26605.635834 26745.930104 26821.982561 26822.414940 26746.600312 26605.069253 26417.347169 26207.994236 25999.491375 25810.793535 25650.337573 25515.593319 25406.825025 25293.920307 25185.090215 25042.846909 24857.791097 24662.302597 24332.966536 24069.700551 23635.599898 23219.881616 22814.072374 22140.244880 21811.246136 21013.479319 20369.437054 19864.989509 18787.355734 18457.103273 17764.239691 18735.567571 17328.316630 16782.298409 18439.570209 16124.518836 11508.389839 5156.682530 3107.295966 34299.004433 30835.465889 24835.418111 28203.687012 28331.704998 32778.360850 27385.787947 28163.440118 30775.984544 29804.356073 32764.740724 33380.754820 31545.253112 30035.480668 32808.773911 32941.430767 31303.166487 28485.396369 27969.526132 30297.133012 31942.787560 33887.381640 35339.038864 35916.722673 36616.830848 37086.482480 37615.426043 38416.714999 38830.521649 38607.314913 37882.626380 36857.294118 35730.192220 34644.756679 33684.363469 32826.938079 31997.276161 31140.551449 30234.937849 29292.497543 28351.908313 27458.502345 26648.458033 25942.419057 25345.570326 24851.603903 24447.929133 24119.853529 23853.286194 23636.059040 23458.276992 23312.191906 23191.950592 23093.406661 23014.052802 22953.033332 22911.142008 22890.687787 22895.116860 22928.312188 22993.553281 23092.209415 23222.353716 23377.605534 23546.597270 23713.467278 23859.633829 23966.773380 24020.512414 24013.836349 23949.058123 23837.828654 23698.044120 23549.579023 23410.805973 23289.858707 23192.877943 23113.461251 23034.650293 22969.462570 22858.410329 22755.978370 22602.917753 22381.929820 22235.878330 21828.704860 21679.611742 21240.681823 20830.852228 20644.696673 19803.334746 19739.072416 18868.747921 18268.896461 17957.388395 16840.206233 17364.344132 15993.262613 17810.278481 16107.834232 18648.151364 15383.796558 15991.499090 11085.907646 4376.938332 2621.684994 31316.121298 24774.171769 18336.246792 29534.223104 28493.176638 26002.670205 27616.684031 29587.541162 31252.936569 29622.448004 32237.544033 29193.596172 30079.039233 32455.673788 32202.879803 28047.844667 28554.033045 31527.174386 34712.465246 36254.346817 34428.037854 33120.887878 32015.692873 30939.127770 31045.717345 31258.656261 31281.305913 31435.686309 31665.409600 31859.179740 31719.631954 31247.915427 30598.838738 29800.073294 28945.227820 28120.506972 27327.171098 26544.857203 25756.479927 24956.850343 24161.176880 23397.486641 22693.906168 22070.486967 21536.132178 21089.656310 20723.113271 20425.264712 20184.225151 19989.078335 19830.593068 19701.386239 19595.834410 19509.927525 19441.154313 19388.421404 19351.956216 19333.122483 19334.082514 19357.268631 19404.674029 19477.035844 19573.051467 19688.824903 19817.753829 19951.013737 20078.640334 20190.976686 20280.113361 20340.749530 20370.120680 20367.676862 20333.344246 20267.260558 20172.414311 20046.962145 19902.138408 19744.034812 19568.889229 19428.520852 19249.081537 19128.490402 18997.303367 18791.646702 18760.749988 18393.934052 18369.245836 18003.004435 17644.247886 17516.652798 16727.993278 16599.583215 15694.490553 15327.044368 14744.746930 14155.880691 14338.035577 13149.535711 14097.937255 12229.224517 14177.712109 12870.305821 11560.222290 10617.722415 3758.599474 1861.602276 29602.690075 25793.897548 21077.856855 25708.096008 23411.855313 28324.265390 26042.055444 28966.795464 26274.601546 28499.807780 26969.733120 28165.668644 30821.578247 28053.797280 26186.697792 29210.449653 33573.648146 32928.129964 28996.130829 26869.363098 27244.274644 29773.601507 31349.606280 31330.541507 30717.824589 29799.282068 29430.155246 29290.605757 28939.836957 28874.322946 28832.798743 28481.414605 27980.294304 27372.841211 26674.641851 25962.841630 25261.215016 24556.655725 23837.537707 23102.558462 22365.419335 21651.762259 20988.652501 20396.246830 19884.593429 19454.131504 19098.515833 18807.904766 18571.521960 18379.280725 18222.555025 18094.402297 17989.528764 17904.184953 17836.081329 17784.328502 17749.353756 17732.723231 17736.802627 17764.215948 17817.108106 17896.278573 18000.320854 18124.959124 18262.792049 18403.615281 18535.367581 18645.550602 18722.888328 18758.751203 18748.010941 18690.004104 18587.666501 18447.763496 18283.577506 18103.297974 17928.909550 17773.134778 17627.247572 17546.330991 17436.743793 17381.172002 17327.700616 17148.344440 17140.047894 16825.980856 16694.659968 16392.227310 15998.928921 15755.259117 15118.011336 14840.688614 14140.879887 13763.733011 13278.350222 13017.913341 12473.678943 12573.118967 12762.397791 11069.636378 12614.718255 10452.125714 13371.443286 7395.588377 2282.340473 1505.340902 27634.880337 26422.606433 19744.002271 24262.232147 22952.665309 26335.832513 23527.583106 24908.007572 25821.422980 25926.602673 25445.264690 28793.160712 26554.888683 24924.974973 29805.016668 30518.407106 26030.394520 21871.400243 24502.569280 30528.066029 32662.654773 30341.504509 27242.199086 26071.819331 26104.008921 25577.943253 24995.931777 25080.321199 25027.384286 24850.409510 24795.634093 24459.149617 23769.722355 22928.897665 22038.877772 21177.409930 20392.765090 19671.468986 18981.806715 18304.584286 17638.064554 16996.570476 16401.065108 15869.028182 15409.900356 15024.601429 14707.574307 14449.782619 14241.175392 14072.308481 13935.152559 13823.336302 13732.105460 13658.184777 13599.637964 13555.739387 13526.819626 13514.027542 13518.959437 13543.137479 13587.369194 13651.079261 13731.761363 13824.730758 13923.340236 14019.739276 14106.088980 14175.930270 14225.339408 14253.330699 14261.223684 14251.885477 14227.285271 14187.765510 14135.161839 14062.784976 13976.806443 13879.725630 13755.169011 13658.720345 13521.907123 13404.896580 13322.760553 13130.853455 13079.984287 12899.557212 12709.514182 12600.123137 12330.036794 12122.006715 11748.965901 11527.140791 11061.953089 10727.085130 10168.449728 10451.548295 9507.328870 9785.524317 9496.841374 10225.326964 10177.386724 9895.748176 8713.325363 7591.759375 2181.513534 1228.263462 25312.844025 25563.020446 19650.225847 23762.216312 20420.668446 24461.869334 22950.833711 23349.591571 23631.960760 23185.720669 24967.091097 24890.067262 22262.672432 28026.591883 26253.388988 23098.681823 24347.135489 30706.595424 33128.227501 28454.891877 23789.174330 24439.575114 26478.271300 26819.878537 25082.383983 23343.188125 22002.281160 21217.641059 21336.286216 21465.990287 21519.180285 21567.865183 21278.044053 20695.314418 19998.088129 19270.087591 18575.766640 17929.744977 17309.708896 16699.467610 16097.115531 15514.299786 14969.897309 14480.539949 14055.879673 13697.888197 13402.373361 13161.638009 12966.760302 12809.145050 12681.352095 12577.389344 12492.722774 12424.175875 12369.811119 12328.814530 12301.357067 12288.388347 12291.324435 12311.617905 12350.238843 12407.141150 12480.827334 12568.140019 12664.379855 12763.774675 12860.196022 12947.873192 13021.876575 13078.058611 13112.392036 13120.784194 13098.022624 13038.630714 12941.979898 12804.570248 12638.635339 12461.288490 12269.266123 12121.638223 11986.572866 11872.439174 11842.709432 11746.236094 11699.305437 11684.742062 11479.719155 11490.524460 11249.636196 11047.585673 10813.047954 10428.776492 10083.605418 9736.458312 8977.118885 9322.515596 8537.042095 8321.918414 8821.173184 7158.988943 8755.850459 8337.844988 8744.020470 5453.500305 1568.775268 780.827244 23589.913436 24013.414867 18087.784029 19118.862262 21194.484904 22344.685352 21591.068413 20528.618058 22805.408965 20775.672463 23976.896392 20192.798462 25050.289014 25117.781478 20690.803574 26426.182522 27043.332444 26990.014929 17673.407903 17889.904373 26561.981806 26462.470909 21312.416652 19920.962682 20675.743647 20881.024475 20221.498882 18475.753872 17536.630498 17499.426558 17198.105399 16844.019113 16390.628096 15710.145002 14971.559697 14267.544232 13635.142749 13080.223181 12572.450342 12086.765272 11614.014415 11158.458162 10732.822757 10349.743166 10016.895981 9736.100957 9504.232037 9315.286958 9162.238639 9038.307685 8937.656391 8855.634842 8788.787007 8734.760338 8692.195781 8660.616087 8640.290229 8632.037015 8636.937764 8655.952420 8689.469955 8736.864110 8796.158357 8863.914706 8935.432818 9005.278457 9068.048086 9119.146340 9155.369883 9175.014098 9177.370091 9162.510203 9130.203784 9079.839487 9014.303372 8932.861298 8843.490724 8759.307695 8670.157122 8609.726989 8566.094638 8497.086812 8490.889217 8433.474050 8319.142043 8344.494284 8116.364040 8140.797853 7926.575369 7818.397291 7737.502459 7339.181060 7317.900896 7023.691437 6715.495990 6447.855308 6679.328667 6310.684879 6725.618441 6280.168953 5281.249291 5849.453945 5556.548233 3178.332140 777.318929 439.918672 21486.905451 20689.054183 14339.335880 17823.830167 20175.606108 18159.316447 18219.487647 20610.453411 18981.367457 20597.330844 20794.752238 19853.427717 24337.550939 17575.975309 26011.859212 22950.815287 22365.445105 21293.766115 23632.844566 28777.656696 18954.625095 17735.400907 24396.390423 24228.563271 19671.533218 16120.309021 15496.264097 15083.839257 14139.593438 14053.631383 14116.177521 13909.163973 13561.855392 13006.019113 12357.408004 11723.996728 11146.453848 10635.766128 10169.631407 9727.609436 9302.680308 8898.153636 8523.971825 8189.899490 7901.432256 7659.300184 7460.242458 7298.723762 7168.462308 7063.460528 6978.565594 6909.661065 6853.661277 6808.426864 6772.664581 6745.827501 6727.998937 6719.731832 6721.821157 6735.007002 6759.635286 6795.334040 6840.786468 6893.685393 6950.924391 7009.021063 7064.676165 7115.266723 7159.097807 7195.205137 7222.581555 7239.662407 7243.377568 7228.755322 7192.759703 7130.348215 7041.886891 6938.318101 6815.605178 6695.763702 6601.104308 6482.479188 6428.280063 6393.067852 6273.841798 6357.240360 6236.512190 6280.070506 6206.922630 6184.977544 6168.296492 5868.806021 5941.329815 5489.542389 5564.070518 5175.224552 4975.815166 4850.910059 4499.338883 5671.821642 4280.203395 4468.537359 4456.086972 2560.738130 455.034306 31.730668 19627.012438 18304.746388 12016.046987 14164.642556 18317.467253 14155.272898 18315.481710 17303.401539 17053.238093 20453.977653 16341.603661 21607.469924 17734.356714 21368.728815 24207.711567 17270.084762 25029.275014 18064.227367 21461.621949 11859.837956 19209.184499 16874.682544 9396.310577 8748.685374 15339.066856 16605.316780 14451.067693 12875.551291 11254.755227 10024.393376 9518.339916 9207.423542 8860.024379 8439.753104 7994.421156 7574.941818 7203.549132 6884.455137 6597.833884 6326.081454 6062.459142 5808.143436 5569.853657 5354.814084 5167.496160 5009.168895 4878.266974 4771.532976 4685.075002 4615.093545 4558.295540 4512.049066 4474.396215 4444.005937 4420.111009 4402.441365 4391.142974 4386.663351 4389.588879 4400.433213 4419.396251 4446.134151 4479.596063 4517.984734 4558.877541 4599.505242 4637.127914 4669.374697 4694.444924 4711.058164 4718.013099 4714.012348 4697.355686 4665.449303 4617.914454 4554.648693 4477.105390 4396.860121 4316.580822 4241.297945 4200.714038 4150.761882 4131.773228 4152.669446 4083.185075 4157.602575 4110.021924 4112.686072 4121.107182 4098.816883 4071.585666 3953.360549 3889.850730 3662.376011 3519.129704 3443.133811 3373.967156 3069.460967 3275.770529 2391.467026 3705.164147 3185.152048 1467.447690 3323.849776 -35.884461 -376.095482 17868.477362 16084.848388 9495.395300 13295.086077 15926.847790 14799.086210 17349.381715 15737.871395 17850.204291 16725.444172 16583.270885 19647.266692 14898.726722 23494.498499 12518.663058 25981.268021 12774.002324 23952.747984 20567.199698 18828.685463 12919.396340 17160.014488 16138.350216 15775.871157 14062.877114 8790.618505 5717.854826 5842.964724 5934.357626 6012.942287 5805.208308 5637.504901 5436.466272 5140.848511 4820.860577 4510.878282 4231.866849 3994.132129 3786.429356 3597.310474 3421.067463 3256.144782 3104.815082 2970.116288 2853.836271 2756.197757 2675.912372 2610.790629 2558.323661 2516.091956 2482.006438 2454.397494 2432.019283 2414.015818 2399.875151 2389.380472 2382.553512 2379.581099 2380.718150 2386.168460 2395.955739 2409.808325 2427.087916 2446.791642 2467.643196 2488.266510 2507.405941 2524.112571 2537.844639 2548.440052 2555.815354 2559.836897 2560.240956 2555.853009 2546.458246 2532.382041 2511.747874 2489.271839 2467.636528 2436.719663 2418.678222 2394.147743 2354.295043 2347.321056 2290.683767 2284.740651 2249.428260 2230.781267 2249.534823 2214.435991 2204.587236 2221.314906 2059.766242 2130.910943 1962.891573 1610.591794 2120.340096 1885.613488 1945.172440 706.344596 2399.938253 50.776387 1783.495451 1158.998151 -1031.441838 -426.733310 16189.621200 13977.249771 7196.185683 11886.207650 15224.688017 13501.429020 15128.285252 14850.287471 15177.748251 14528.868986 16191.916147 14903.706571 17518.803243 16786.335713 21154.956754 20318.022999 20899.515155 20231.476988 9023.190315 13757.998560 -2004.283902 2558.687872 12134.450872 21854.986603 17064.134821 14631.414728 17329.098719 13576.770996 7766.022132 5081.175769 3758.318312 3122.223452 2833.821055 2615.114161 2436.861708 2279.704793 2145.212342 2035.716267 1941.039623 1854.202714 1771.503113 1691.902159 1617.118853 1549.255784 1489.804483 1439.333985 1397.481659 1363.309029 1335.626584 1313.239643 1295.097978 1280.357171 1268.390131 1258.773964 1251.267834 1245.787419 1242.373986 1241.153697 1242.284088 1245.889132 1251.990267 1260.446262 1270.917645 1282.869674 1295.619058 1308.416313 1320.541985 1331.370848 1340.372116 1347.055682 1350.769368 1350.559661 1345.347165 1333.462502 1313.472505 1285.819945 1249.198786 1205.409163 1163.395986 1116.216948 1073.335602 1057.568031 1027.099383 1021.877976 1062.594777 1062.671108 1097.076970 1166.571987 1196.822025 1198.002165 1236.459093 1258.138685 1178.392509 1150.868378 1264.146053 1057.461141 809.504038 614.386974 1221.719869 1376.047889 887.661572 976.576269 882.036386 -7060.861153 -1042.185972 -86.894042 14630.169066 12182.353407 5259.361464 9729.184883 11621.499700 11012.344490 12658.280324 12585.212880 13508.030997 13914.556144 13874.473690 13548.634905 17000.653697 10830.035140 22869.955959 5876.941215 21206.887486 9434.478307 -3483.818551 -167.190940 -0.419484 13141.023222 10644.950520 3927.360955 8922.566514 10498.120845 10390.964688 11421.562277 11638.908971 11838.222853 12617.964149 11919.938020 13809.227160 13715.079137 14873.360675 18579.925614 16505.724151 15075.251997 -6016.575856 -44.600527 -0.000000 -0.000000 11689.705212 9276.637530 3102.124278 7778.228721 8812.255747 8783.003422 9976.592716 10162.537788 10441.188961 10986.265428 10510.545284 12415.128103 11705.452815 14989.429376 12943.404020 16285.392089 15973.555060 33184.500839 -0.000000 -0.000000 -0.000000 10241.565195 7922.853249 2273.095607 6289.945927 7314.372968 7213.693460 8607.580309 8369.445169 9500.026399 9457.528559 10175.192749 10044.372394 12004.135551 12083.780899 14706.185950 17961.925498 19468.355776 13336.477600 -0.000000 -0.000000 -0.000000 8798.311783 6654.369968 1872.895215 5103.376941 5803.146421 5542.701270 7423.302461 6861.570509 7829.800650 7580.597897 9323.394748 8045.385275 10739.511459 9957.993896 13848.312893 12744.779558 15685.264952 11536.168538 -0.000000 -0.000000 -0.000000 7382.648959 5285.735443 1200.250975 4357.902227 5083.785743 4265.189746 5589.156183 5627.320174 7071.644043 6156.277603 7543.841991 7575.314349 8322.059182 9352.049742 11318.359795 8133.415576 13339.587965 18159.568521 -0.000000 -0.000000 -0.000000 6161.904577 4420.356326 1492.364458 2753.969316 3668.837271 3764.942685 4820.345053 3654.045639 5536.873397 5826.707953 5986.207147 7294.798780 7024.732750 8693.670579 9691.859269 10287.630298 13205.163718 11657.299702 -0.000000 -0.000000 -0.000000 5106.635558 3870.654292 2201.434401 2752.960549 2691.170931 2126.567737 4063.034817 3648.077112 3976.945193 5136.731385 5331.678488 6444.644646 6219.031669 7642.279777 7326.136226 10093.634196 8362.139264 12460.781640 -0.000000 -0.000000 -0.000000 4263.867753 2755.667311 517.167598 2146.327253 2996.816605 2612.466811 2425.989899 3241.822265 3719.591539 4126.904697 4600.285136 5927.084038 5471.544565 6594.011205 5586.264057 8526.428598 3346.856931 14995.316448 -0.000000 -0.000000 -0.000000 3864.380640 4096.411538 1513.041440 2246.485406 1576.900963 2423.867417 2221.143748 2200.945980 2920.499486 3505.624248 3732.971775 4977.508136 4915.971151 5248.391174 4796.854433 6547.589129 2777.612380 11774.306149 -0.000000 -0.000000 -0.000000 1930.074218 5674.237533 6731.134749 2553.006016 2936.608294 2778.255570 1906.915919 2099.894618 2576.590937 2788.286706 3698.367528 3718.352409 4599.498467 4198.799519 4255.013583 4045.857884 3323.559965 5741.859751 -0.000000 -0.000000 -0.000000 -2598.098242 -1836.333484 -2365.978925 2907.714409 108.130629 2454.315580 1947.779642 1814.418771 2358.418521 1902.150465 3469.810113 2778.401568 4007.935997 3382.566623 3687.500103 3005.328009 2694.191569 3073.435261 -0.000000 -0.000000 -0.000000 -5081.193596 -5796.473011 -2615.193901 2831.649486 1697.657710 1570.523182 1335.632389 1690.950347 1743.942169 1371.967452 2639.780762 2003.585634 2949.412141 2692.495578 2824.478096 3310.299743 1447.423415 1687.636971 -0.000000 -0.000000 -0.000000 -5718.114645 -9690.050345 -12296.810112 4795.098672 -2195.718348 1700.739700 1188.768931 1598.210053 1272.572306 1255.616864 2139.025554 1535.495393 2086.157456 2158.076192 1954.980701 1613.544412 417.386561 1870.941990 -0.000000 -0.000000 -0.000000 -3346.586349 -5470.803990 -8762.632568 -10955.157730 1384.536789 2293.828499 602.674938 1861.068316 -4.938979 1083.834594 1150.683723 756.248483 980.921333 989.837928 1198.372267 796.207142 1368.673282 1306.095279 -0.000000 -0.000000 -0.000000 -517.016394 -672.249372 -854.955653 -0.000000 -0.000000 -0.000000 -6.257306 -7.073085 -8.189366 -0.000000 -0.000000 -0.000000 0.000000 0.000000 -0.000000 -0.000000 -0.000000 -0.000000 0.000000 0.000000 -0.000000 -0.000000 -0.000000 -0.000000 0.000000 0.000000 -0.000000 -0.000000 -0.000000 -0.000000 0.000000 0.000000 -0.000000 -0.000000 -0.000000 -0.000000 0.000000 0.000000 -0.000000 -0.000000 -0.000000 -0.000000 0.000000 0.000000 -0.000000 -0.000000 -0.000000 -0.000000 0.000000 0.000000 -0.000000 -0.000000 -0.000000 -0.000000 0.000000 0.000000 -0.000000 -0.000000 -0.000000 -0.000000 0.000000 0.000000 -0.000000 -0.000000 -0.000000 -0.000000 0.000000 0.000000 -0.000000 -0.000000 -0.000000 -0.000000 0.000000 0.000000 -0.000000 -0.000000 -0.000000 -0.000000 0.000000 0.000000 -0.000000 -0.000000 -0.000000 -0.000000 0.000000 0.000000 0.000000 -0.000000 -0.000000 0.000000 0.000000 0.000000 0.000000 -0.000000 -0.000000 0.000000 0.000000 0.000000 0.000000 0.000000 -0.000000 0.000000 0.000000 0.000000 0.000000 -0.000000 -0.000000 -0.000000 0.000000 0.000000 0.000000 -0.000000 -0.000000 -0.000000 0.000000 0.000000 0.000000 -0.000000 -0.000000 -0.000000 0.000000 0.000000 0.000000 -0.000000 -0.000000 -0.000000 0.000000 0.000000 0.000000 -0.000000 -0.000000 -0.000000 0.000000 0.000000 0.000000 -0.000000 -0.000000 -0.000000 0.000000 0.000000 0.000000 -0.000000 -0.000000 -0.000000 0.000000 0.000000 0.000000 -0.000000 -0.000000 -0.000000 0.000000 0.000000 0.000000 0.000000 0.000000 0.000000 -0.000000 -0.000000 -0.000000 -0.000000 -0.000000 0.000000 0.000000 -0.000000 0.000000 0.000000 -0.000000 0.000000 0.000000 -0.000000 0.000000 -0.000000 0.000000 0.000000 -0.000000 0.000000 -0.000000 0.000000 0.000000 -0.000000 0.000000 0.000000 -0.000000 0.000000 -0.000000 0.000000 0.000000 -0.000000 0.000000 -0.000000 0.000000 0.000000 -0.000000 0.000000 -0.000000 -0.000000 -0.000000 -0.000000 -0.000000 -0.000000 -0.000000 -0.000000 -0.000000 -0.000000 -0.000000 -0.000000 -0.000000 -0.000000 -0.000000 -0.000000 -0.000000 -0.000000 -0.000000 -0.000000 -0.000000 -0.000000 -0.000000 -0.000000 -0.000000 -0.000000 -0.000000 -0.000000 -0.000000 -0.000000 -0.000000 -0.000000 -0.000000 -0.000000 -0.000000 -0.000000 -0.000000 -0.000000 -0.000000 -0.000000 -0.000000 -0.000000 -0.000000 -0.000000 -0.000000 -0.000000 -0.000000 -0.000000 -0.000000 -0.000000 -0.000000 -0.000000 -0.000000 -0.000000 -0.000000 -0.000000 -0.000000 -0.000000 -0.000000 -0.000000 -0.000000 -0.000000 0.000000 0.000000 -0.000000 0.000000 0.000000 -0.000000 -0.000000 -0.000000 -0.000000 -0.000000 -0.000000 -0.000000 -0.000000 -0.000000 -0.000000 -0.000000 -0.000000 -0.000000 -0.000000 -0.000000 -0.000000 -0.000000 -0.000000 -0.000000 -0.000000 -0.000000 -0.000000 -0.000000 -0.000000 -0.000000 -0.000000 -0.000000 -0.000000 -0.000000 -0.000000 -0.000000 -0.000000 -0.000000 -0.000000 -0.000000 -0.000000 -0.000000 -0.000000 0.000000 -0.000000 -0.000000 -0.000000 -0.000000 -0.000000 -0.000000 -0.000000 -0.000000 -0.000000 -0.000000 -0.000000 -0.000000 -0.000000 -0.000000 -0.000000 -0.000000 -0.000000 -0.000000 -0.000000 -0.000000 -0.000000 -0.000000 -0.000000 -0.000000 -0.000000 -0.000000 -0.000000 -0.000000 -0.000000 -0.000000 -0.000000 -0.000000 -0.000000 -0.000000 -0.000000 -0.000000 -0.000000 -0.000000 -0.000000 -0.000000 -0.000000 -0.000000 -0.000000 -0.000000 -0.000000 -0.000000 -0.000000 -0.000000 -0.000000 -0.000000 -0.000000 -0.000000 -0.000000 -0.000000 -0.000000 -0.000000 -0.000000 -0.000000 -0.000000 -0.000000 -0.000000 -0.000000 0.000000 0.000000 0.000000 0.000000 0.000000 0.000000 -0.000000 -0.000000 -0.000000 -0.000000 -0.000000 -0.000000 -0.000000 -0.000000 -0.000000 -0.000000 -0.000000 -0.000000 -0.000000 -0.000000 -0.000000 -0.000000 -0.000000 -0.000000 -0.000000 -0.000000 -0.000000 -0.000000 -0.000000 -0.000000 -0.000000 -0.000000 -0.000000 -0.000000 -0.000000 -0.000000 -0.000000 -0.000000 -0.000000 -0.000000 -0.000000 -0.000000 0.000000 0.000000 0.000000 -0.000000 -0.000000 -0.000000 -0.000000 -0.000000 -0.000000 -0.000000 -0.000000 -0.000000 -0.000000 -0.000000 -0.000000 -0.000000 -0.000000 -0.000000 -0.000000 -0.000000 -0.000000 -0.000000 -0.000000 -0.000000 -0.000000 -0.000000 -0.000000 -0.000000 -0.000000 -0.000000 -0.000000 -0.000000 -0.000000 -0.000000 -0.000000 -0.000000 -0.000000 -0.000000 -0.000000 -0.000000 -0.000000 -0.000000 -0.000000 -0.000000 -0.000000 -0.000000 -0.000000 -0.000000 -0.000000 -0.000000 -0.000000 -0.000000 -0.000000 -0.000000 -0.000000 -0.000000 -0.000000 -0.000000 -0.000000 -0.000000 -0.000000 -0.000000 -0.000000 -0.000000
</DataArray>
<DataArray type="Float64" Name="Velocity" NumberOfComponents="3" format="ascii">