<VTKFile type="PolyData">
<PolyData>
<Piece NumberOfPoints="3000" NumberOfVerts="3000" NumberOfLines="0" NumberOfStrips="0" NumberOfPolys="0">
<PointData>
<DataArray type="Float64" Name="Pressure" format="ascii">
 43333.776292 44393.331760 45364.275408 46016.195292 45668.776146 45494.820430 46092.295464 46100.916726 46068.149821 46099.525364 45432.338431 43544.257611 42389.015256 41540.007646 40598.115741 39747.546448 38728.130613 37715.523413 36822.816102 35957.356843 34954.260847 33794.226971 32607.922097 31521.734048 30535.527828 29585.952749 28623.228036 27630.106850 26627.544782 25636.359492 24668.761939 23732.442349 22831.747425 21969.904205 21143.330425 20347.004241 19580.762969 18847.710681 18150.756998 17491.966383 16873.362652 16296.362761 15761.180674 15267.178733 14813.387458 14398.905004 14023.120121 13685.649784 13386.045383 13123.464213 12896.392913 12702.561899 12539.068585 12402.613500 12289.761379 12197.163033 12121.708893 12060.613227 12011.439491 11972.085166 11940.745147 11915.868183 11896.115275 11880.324383 11867.482892 11856.707903 11847.234117 11838.409240 11829.697049 11820.688182 11811.118098 11800.890528 11790.103211 11779.070950 11768.339521 11758.683080 11751.078023 11746.648236 11746.580495 11752.014332 11763.917108 11782.960906 11809.421319 11843.117454 11883.406888 11929.239408 11979.261507 12031.953161 12085.772292 12139.282015 12191.242792 12240.660580 12286.793221 12329.132148 12367.365342 12401.354709 12431.129336 12456.874521 12479.007704 12498.114020 12515.044926 12530.825871 12546.420578 12563.017164 12580.890172 12600.544924 12621.078340 12640.914758 12658.983850 12671.035703 12677.225517 12673.241295 12658.510270 12633.668686 12595.963583 12546.135947 12485.572688 12415.156918 12322.593547 12236.321215 12134.949776 11992.669582 11778.068104 11453.919037 10978.061087 10460.112725 9494.540433 7541.332856 5442.025468 4526.347592 4518.123209 41348.753671 40541.670761 38243.164419 39224.531554 39294.627453 36508.846801 37560.980804 35347.513182 37663.684705 39708.592000 41307.924026 38421.108791 38404.246724 38120.607805 36525.098198 37016.062905 36120.333108 35218.201807 34664.668354 35073.700303 35580.442378 35211.424942 34013.859010 32776.678158 31971.571686 31601.471785 31387.771695 31064.882472 30597.089152 29980.384909 29269.004699 28529.751342 27831.150385 27225.510353 26687.828306 26171.714325 25651.031280 25116.671487 24552.309608 23950.891624 23322.993152 22685.178202 22053.631934 21440.855463 20852.332013 20287.276013 19742.727273 19217.020395 18711.789679 18231.981971 17784.736591 17376.813066 17012.810967 16694.482011 16420.852298 16188.859540 15994.171261 15831.939313 15697.360427 15586.009579 15493.977222 15417.876906 15354.789595 15302.194458 15257.916626 15220.105813 15187.247693 15158.202082 15132.256969 15109.184165 15089.279919 15073.372474 15062.778587 15059.193808 15064.507709 15080.546275 15108.759258 15149.888989 15203.675363 15268.663573 15342.179395 15420.515423 15499.329629 15574.202572 15641.247440 15697.638352 15741.931462 15774.101767 15795.296325 15807.376922 15812.381737 15812.063626 15807.580887 15799.476235 15787.852762 15772.629839 15754.154465 15732.998576 15710.685411 15688.993125 15669.130131 15653.399873 15639.049386 15626.594196 15608.782869 15579.184834 15536.099393 15460.498073 15368.488602 15238.297752 15089.385988 14928.944449 14741.695811 14563.219819 14367.947591 14170.790832 13933.920048 13762.927728 13473.644660 13224.785769 13018.908903 12733.814107 12294.878960 11960.500296 11331.336563 11612.885131 11134.978502 9596.965373 6774.006716 4245.348244 3997.782364 39013.680312 34757.032174 26540.902759 28117.526104 31689.474076 25442.904047 25400.435000 26615.785299 27457.632517 28917.026008 31363.628741 28412.065925 30076.136960 29329.995897 27829.386181 30364.592031 30075.965692 28566.397594 28630.156859 31615.215997 35300.646520 36320.594480 34994.087223 33427.967181 32754.616302 33427.603581 34593.859519 35582.735422 36421.004861 36739.559177 36679.413598 36294.232586 35747.155167 35376.749209 35241.514978 35383.643615 35790.431614 36327.953233 36789.949528 37002.333943 36935.612423 36628.452407 36144.771116 35565.052010 34959.023047 34354.907121 33748.823887 33122.130088 32458.036606 31753.588247 31022.740269 30290.518015 29584.761531 28929.181211 28339.388806 27822.237621 27377.302284 26999.126092 26679.633932 26410.073902 26182.194431 25988.806784 25823.935476 25682.760924 25561.510048 25457.386397 25368.571534 25294.282934 25234.842640 25191.694555 25167.305021 25164.890462 25187.937292 25239.513299 25321.415743 25433.256885 25571.645518 25729.669730 25896.900541 26060.092813 26204.640040 26316.646859 26385.259489 26404.719449 26375.568156 26304.589117 26203.400839 26085.991640 25965.844172 25853.358192 25754.186411 25669.079575 25594.600673 25525.286294 25456.161368 25383.097948 25307.527797 25230.724578 25157.677853 25095.749100 25035.862832 24991.075748 24925.324220 24841.976110 24716.345934 24489.661754 24252.368980 23841.240213 23472.376775 23015.087974 22551.089515 22232.208204 21794.156674 21562.067063 21177.645610 21035.063079 20488.281291 20466.691370 20109.757773 19698.816762 19754.359524 19640.353042 19188.693776 19001.566580 17942.855217 19811.104747 19033.730772 16385.083889 12598.328944 5564.375209 3748.330342 37373.209921 33987.592425 25365.410322 19983.387661 26680.983449 22476.706631 24549.240673 28965.717506 25211.881919 28128.859371 28837.953562 27941.323996 27100.941110 28660.841435 28262.945525 27716.434281 30164.792771 32775.145545 33081.441456 31411.446761 30152.036764 31534.284738 33228.208239 35110.559560 36449.763816 36649.828575 37229.563847 37707.676142 38036.203141 38420.846761 38141.844276 37404.891765 36660.355124 36083.930678 35848.114920 35882.022711 36114.316853 36455.999684 36686.141312 36656.795394 36339.165369 35755.246335 34970.822844 34081.115140 33173.671117 32302.890602 31487.852845 30719.899094 29976.762973 29238.818642 28499.234523 27765.226690 27053.518831 26383.578228 25771.779417 25228.176489 24755.844643 24352.059442 24010.264217 23722.073780 23478.866300 23272.787937 23097.241370 22947.025973 22818.299607 22708.486716 22616.196686 22541.160436 22484.152618 22446.845434 22431.538264 22440.723685 22476.483006 22539.750290 22629.538051 22742.271810 22871.420288 23007.613057 23139.386007 23254.573223 23342.181490 23394.384460 23408.134436 23385.891274 23335.145546 23266.752038 23192.459791 23122.262114 23062.382768 23014.334117 22975.202078 22939.659895 22901.307614 22855.594540 22802.070731 22740.083881 22679.032202 22620.260074 22568.686036 22536.192079 22488.185560 22463.393920 22382.216882 22271.402001 22126.077080 21811.421738 21607.635729 21127.482036 20839.170867 20474.951952 20064.375720 19965.299867 19523.968079 19505.279905 18952.685418 19112.330253 18436.210174 18349.423784 18478.832754 17830.532279 18041.404395 18150.074403 17535.185824 18474.153645 17120.888847 18129.167946 17315.853140 18486.026865 14806.592628 5684.389233 3264.066434 34891.757269 33154.353968 26857.998410 26036.123255 25884.489612 22044.275986 25445.441233 24365.096698 25533.821325 28358.907283 28775.852927 27240.602597 29887.576480 28719.686654 28169.767262 30216.092184 31928.860183 30054.625410 28339.078331 29703.797712 32205.609608 34250.501792 33436.633366 32591.691895 32383.227101 32125.366029 32925.471043 33346.321551 33464.426745 33884.724776 34082.573407 34191.880586 34066.222002 33680.125036 33378.318419 33025.322087 32564.761552 32193.833716 31955.702301 31778.423622 31589.181907 31333.556551 30962.617483 30456.955703 29842.713419 29163.354624 28458.894466 27757.091808 27069.109656 26394.766582 25732.149063 25083.647193 24457.457371 23865.511680 23319.765119 22829.078875 22397.735343 22025.456562 21708.381730 21440.453898 21214.743607 21024.448773 20863.512762 20726.926095 20610.820347 20512.453513 20430.151695 20363.232489 20311.903449 20277.110440 20260.307057 20263.126648 20286.960458 20332.475565 20399.139426 20484.846096 20585.751238 20696.406178 20810.226159 20920.238190 21019.953104 21104.136267 21169.258398 21213.511107 21236.430889 21238.348616 21219.942763 21182.044062 21125.901533 21053.543790 20967.898416 20873.697487 20775.633254 20679.112208 20591.007079 20510.085916 20446.378514 20392.454447 20344.054018 20318.514114 20254.694137 20225.105346 20128.288982 20006.675301 19903.141293 19611.666617 19529.957897 19132.349156 19008.632583 18697.576655 18423.719062 18232.192521 17743.962311 17765.255387 16828.924605 17361.307986 16362.234452 16452.073471 16519.143123 15915.248413 15242.102447 16311.830763 13849.134650 16850.914926 13217.864964 14025.726773 15047.187563 12794.286899 13163.959865 5100.669273 2550.369422 32505.273883 28074.025404 18732.140916 19546.580487 23225.690474 26218.530785 22844.252174 24412.760079 24719.650536 25359.012409 24271.492914 26342.670536 27066.511033 25801.594851 28439.330880 28313.125484 26087.853796 26865.728362 30591.394105 32564.274379 30336.879920 27689.266620 26590.674547 28272.683286 30450.044927 31344.942079 31784.742588 31688.985241 31755.746711 32035.517622 32020.533997 32237.567291 32536.080532 32476.363107 32243.020116 31941.832792 31521.389134 30999.364813 30506.332026 30124.123864 29792.701032 29459.747738 29093.015575 28651.522548 28128.839632 27547.517733 26933.609129 26308.629277 25684.309581 25063.352295 24446.280875 23836.837771 23243.643689 22678.714841 22154.264762 21679.727840 21260.152392 20896.060758 20584.343408 20319.603105 20095.463305 19905.576596 19744.263818 19606.839298 19489.725754 19390.456092 19307.626390 19240.824906 19190.529290 19157.944921 19144.753490 19152.751912 19183.385238 19237.209838 19313.359030 19409.114177 19519.698313 19638.394172 19757.035910 19866.838120 19959.429114 20027.883238 20067.536767 20076.436128 20055.368183 20007.550697 19938.109911 19853.378875 19760.293964 19665.626026 19574.965223 19493.155546 19421.962233 19361.707211 19313.802223 19269.893830 19237.494831 19206.877730 19170.554962 19157.167296 19096.706454 19070.436018 18991.334884 18863.409331 18780.702318 18502.597727 18379.233500 18024.023028 17832.450495 17475.390968 17245.728965 16923.198099 16575.587696 16560.948471 15785.779276 16333.008684 15477.037511 15620.239602 15492.636424 15209.038580 14044.528653 15860.264870 13522.336662 16635.492247 15916.286677 16519.168183 12335.703422 13908.501707 7656.648005 2598.094235 2523.555284 31981.777433 27486.397448 17435.644325 21968.333146 25001.272813 18480.851517 23657.090133 23044.209431 25290.493035 22464.836599 26952.440020 24175.106624 25664.238173 26265.334932 27809.110678 25305.686334 27585.286017 30242.982325 29187.787298 25678.227724 24487.820560 28442.955415 32429.695545 33051.324007 31526.482759 30198.696454 29860.326944 29857.277865 30123.399671 30396.526474 30466.754748 30483.820167 30449.361089 30381.613601 30004.316893 29242.236629 28517.076819 27888.344455 27284.903665 26843.844588 26534.299026 26218.475140 25828.666032 25325.853851 24707.977209 24017.765717 23305.914045 22608.939700 21943.828596 21310.721736 20702.609554 20114.604789 19548.047924 19010.034406 18510.272151 18057.477601 17656.968811 17309.883386 17013.685925 16763.356512 16552.691115 16375.372849 16225.689389 16098.918168 15991.468875 15900.879466 15825.736291 15765.553043 15720.612222 15691.754625 15680.099760 15686.692104 15712.091670 15755.957119 15816.698407 15891.293679 15975.360161 16063.530914 16150.115831 16229.928811 16299.075154 16355.455559 16398.793958 16430.139908 16450.977576 16462.261471 16463.753580 16453.865316 16430.307511 16391.067861 16335.200207 16264.728717 16182.833065 16094.893259 16010.142839 15928.205888 15862.987501 15811.336937 15763.309432 15750.096819 15702.727056 15679.007682 15632.188099 15511.812775 15446.990638 15233.550419 15091.005058 14878.746214 14701.075454 14484.197369 14356.950891 14130.804732 13919.630763 13789.210698 13282.531806 13377.620494 12922.039516 12683.314773 12468.199141 12732.991155 11695.606154 12088.413407 12024.275921 10714.443534 11715.689246 14689.336261 12641.628510 10442.011556 9526.717496 3298.287890 1985.664384 31753.637837 28834.829902 18874.273222 16938.703174 18935.727059 22155.747623 21725.960937 20492.481173 21756.289536 21510.416124 24586.141359 22983.837081 25745.967366 26736.133867 24511.824528 26656.412202 28247.058691 25457.584565 23984.182064 26243.250529 29760.909963 29823.105128 26107.257787 23351.042039 24488.052476 26801.545481 27413.031525 27069.685197 27025.686296 27268.231083 27805.446366 28482.519400 28667.125471 28610.863490 28505.437802 27787.512838 26674.741157 25705.888829 24899.303228 24303.094466 23977.256015 23783.457789 23574.992874 23269.237456 22831.707845 22285.218083 21682.097418 21068.599531 20471.785666 19899.530780 19348.454128 18814.068526 18296.572153 17801.639413 17338.112278 16914.656236 16537.212777 16207.940377 15925.440276 15685.744063 15483.509518 15313.063083 15169.136136 15047.289714 14944.098627 14857.181396 14785.143917 14727.473829 14684.394344 14656.669155 14645.346870 14651.443547 14675.581892 14717.630256 14776.406602 14849.522953 14933.435171 15023.724490 15115.572743 15204.318335 15285.925046 15357.195071 15415.636301 15459.041181 15484.984255 15490.564025 15472.671597 15428.787808 15358.328458 15263.792824 15150.963789 15029.520490 14909.689771 14801.198809 14714.453058 14647.130124 14606.097043 14585.810325 14567.220692 14578.021079 14561.604646 14545.749714 14534.438011 14435.434383 14383.795053 14237.433105 14082.178612 13945.933622 13737.478917 13585.535754 13385.319919 13183.779923 12909.676526 12691.207781 12322.190698 12152.811125 12033.455510 11715.501716 11715.340636 11740.200807 11172.008180 11185.660588 10962.724656 11073.289011 8526.097821 11097.865717 11859.682334 11273.045355 5963.902846 2062.494739 1537.279990 29606.630630 25753.811640 14979.836979 18090.482093 17885.249576 17029.113152 18126.121672 20932.889386 20353.302315 20994.649038 22541.613852 21531.288891 25296.683076 23409.741981 24449.879940 27438.781636 23256.213392 24697.817714 26673.970494 27942.088571 25725.343058 20925.055362 23693.462222 28840.166031 28747.305576 26237.232375 24531.938148 24787.254432 25299.572689 25075.351637 24917.747843 25164.481796 25431.983830 25287.942908 25021.772817 24672.157796 23784.616912 22688.616996 21796.310126 21088.236168 20576.791125 20221.766008 19882.893801 19473.269995 18967.774948 18384.723140 17771.248139 17169.635282 16601.800964 16071.182810 15570.531107 15091.716339 14631.760452 14193.656557 13784.148830 13410.479435 13077.800493 12788.014362 12539.855688 12329.732644 12152.804036 12003.937202 11878.391378 11772.211822 11682.395671 11606.908372 11544.614176 11495.156402 11458.797398 11436.212723 11428.232016 11435.529615 11458.287811 11495.879188 11546.634440 11607.769275 11675.529607 11745.572370 11813.532765 11875.653634 11929.298441 11973.168282 12007.118449 12031.611929 12046.995859 12052.912447 12048.142909 12030.947574 11999.996945 11955.329907 11898.641023 11834.212669 11766.702952 11700.409399 11641.846244 11588.487409 11545.436020 11514.906157 11481.255776 11472.267661 11456.065957 11431.009164 11437.398389 11365.240020 11321.766262 11232.470270 11088.084910 10992.617262 10802.828698 10732.143075 10524.144525 10447.101128 10234.419281 10124.571762 9867.727165 9754.253105 9692.020505 9422.482045 9504.097911 9084.272680 9154.246169 8523.716614 8628.219958 9088.134459 9327.577681 7315.332259 8643.503001 8618.098154 6975.526602 1906.002013 1257.492582 27474.040783 24731.404587 15854.289358 14350.279498 16287.749349 17791.651769 18241.618442 19152.756165 16806.391783 21176.089517 19800.752828 21814.376607 23420.770335 21554.525703 26260.571896 22658.496843 24193.179488 26911.725404 23952.903049 23353.508443 22639.016283 25715.870306 28199.612168 24108.305394 20710.979277 23649.444978 25291.324607 23992.077556 22595.170598 22050.112781 22097.244977 22429.208031 22841.034693 23087.838198 22526.388417 21787.452166 21042.894323 19971.215403 19025.238847 18406.472266 18005.492382 17766.458244 17557.260121 17265.203216 16862.494337 16368.460250 15830.952696 15295.762877 14787.180961 14310.222790 13858.846418 13425.448824 13007.176168 12606.919512 12231.234415 11887.283071 11580.322496 11312.548470 11083.124649 10888.944888 10725.640585 10588.490499 10473.080054 10375.689731 10293.465305 10224.442228 10167.484080 10122.170532 10088.647053 10067.434712 10059.196657 10064.467439 10083.368835 10115.355592 10159.049447 10212.221424 10271.963449 10335.046982 10398.403784 10459.599042 10517.127948 10570.382229 10619.221223 10663.231412 10700.910114 10729.128965 10743.216430 10737.744096 10708.050258 10651.920858 10570.503165 10469.442323 10357.091271 10242.544327 10137.629435 10046.612945 9975.314896 9931.701439 9900.483498 9898.718355 9914.103678 9916.050885 9957.504930 9941.288798 9923.465083 9892.965075 9788.191044 9716.453470 9574.560888 9522.850139 9322.550861 9263.641146 9056.292533 8906.901996 8644.247270 8420.477226 8420.044289 7909.227203 8255.349535 7632.854884 8048.814839 7480.885699 7242.031035 7554.831698 7196.082258 8260.537705 6471.040998 7378.656301 4521.967754 1530.947572 932.701004 25230.380472 21414.880891 11904.850384 14729.667206 17217.193266 16759.107768 15198.283698 15631.397261 18078.736211 18960.901677 18375.789609 22482.347746 19857.434794 23642.559373 23235.953007 21352.746336 26584.516298 20919.836270 23651.392021 23412.143142 25181.607942 24685.967576 15736.035511 19928.048773 24123.525610 20667.308931 16524.410389 17107.966828 19237.589485 20068.800124 19422.375526 18670.175563 18371.778277 18997.826975 19396.393930 18791.005415 18086.261153 17205.061360 16172.571110 15395.913534 14863.858515 14499.113052 14207.267930 13878.977797 13479.663648 13021.833546 12541.919366 12077.014976 11645.421230 11248.334866 10877.746586 10524.603547 10184.529846 9858.775530 9552.285072 9270.958377 9019.333311 8799.464970 8610.863879 8451.097365 8316.631860 8203.608868 8108.414176 8028.016359 7960.116193 7903.167763 7856.322567 7819.327430 7792.387364 7775.992741 7770.709014 7776.935909 7794.658447 7823.229223 7861.233618 7906.489861 7956.217872 8007.372204 8057.080180 8103.071572 8143.954892 8179.211268 8208.854155 8232.831360 8250.373104 8259.584526 8257.562380 8241.079017 8207.809702 8157.626722 8093.060442 8019.802261 7945.097602 7875.196793 7817.510705 7773.390119 7741.938607 7730.168025 7724.176885 7731.641454 7760.460819 7769.843341 7808.446637 7817.982235 7801.198584 7780.664879 7702.756182 7620.896753 7515.221199 7441.255379 7304.737120 7254.529069 7094.833444 7011.025335 6875.646116 6585.658894 6820.123500 6269.021355 6680.821722 6419.322128 6048.473315 6866.121024 5583.076491 6126.250846 4825.784009 5351.561691 5575.268743 5547.775364 4292.923738 970.682428 547.686320 23327.488370 19704.777472 11354.205629 13033.535126 14885.448404 13855.073525 14890.495431 16163.841511 15956.422889 16381.125057 18434.740227 19069.284107 19210.547122 22956.823824 18392.984074 24531.778288 20180.205122 21226.409529 25409.093785 19018.824267 22716.414051 17802.441053 23856.073271 24475.235726 15115.864852 17785.793929 22882.588187 20733.931215 15912.313761 14328.442012 15814.095241 17033.114227 16721.925724 16062.735710 16271.813029 16067.559916 15358.588207 14644.325669 13833.345970 13158.260575 12703.508502 12391.413992 12139.611377 11854.044390 11502.202211 11097.058563 10670.772901 10256.481133 9870.784679 9515.026523 9182.802548 8866.795723 8563.599796 8274.514158 8003.798063 7756.378800 7535.926361 7343.951111 7179.792678 7041.152357 6924.818914 6827.330427 6745.456815 6676.484932 6618.342340 6569.611833 6529.480532 6497.650074 6474.217792 6459.529039 6453.999949 6457.917490 6471.236639 6493.408611 6523.283526 6559.129804 6598.795847 6640.005639 6680.733441 6719.556592 6755.859594 6789.776808 6821.827265 6852.306266 6880.611942 6904.772122 6921.439614 6926.429701 6915.794633 6887.121569 6840.211638 6777.757175 6704.723158 6626.050205 6548.685158 6477.298105 6412.866979 6366.865002 6334.617941 6318.410365 6339.351665 6358.045439 6399.050180 6447.041153 6459.026263 6455.605001 6436.459726 6363.600658 6307.130567 6225.538254 6165.105680 6117.933403 5976.844519 5951.939444 5824.029347 5538.617634 5609.472976 5364.682743 5140.306835 5285.861783 4868.919027 4794.596496 4867.521427 4701.857097 4799.932105 4769.304599 3996.461885 5056.688533 2055.231153 387.959488 171.204177 21584.401246 17825.554828 9875.115444 12243.834241 15044.939671 12585.172487 14917.306326 13211.084884 14979.909559 15913.572187 16808.526316 17170.606877 19875.014208 18834.417049 19703.730340 22959.766424 15971.940353 26765.933963 15518.690222 21721.260233 19175.768898 21722.994538 12687.483663 11283.221084 19791.165968 18643.723919 6502.380772 8947.690387 15894.163148 15420.912417 12550.605387 10880.763245 11243.752706 11705.954208 12099.634379 12414.071268 12095.850128 11434.648211 10680.041356 10012.964979 9533.053427 9200.551502 8947.203938 8692.974433 8405.607142 8091.311315 7770.772044 7466.324362 7187.836535 6933.614104 6696.787127 6470.513711 6251.600572 6040.995030 5842.195959 5659.348236 5495.649949 5352.597790 5229.957578 5126.172761 5038.934319 4965.704780 4904.102958 4852.133339 4808.287298 4771.556737 4741.394560 4717.643014 4700.437969 4690.089680 4686.940118 4691.203179 4702.804468 4721.248398 4745.547335 4774.245806 4805.558498 4837.613028 4868.751270 4897.806778 4924.256387 4948.157103 4969.834140 4989.377936 5006.102172 5018.184826 5022.722235 5016.260768 4995.770682 4959.841329 4909.317916 4847.702702 4780.800974 4714.293008 4654.626567 4607.050013 4570.968098 4553.779228 4553.165381 4562.852774 4602.509920 4644.053096 4687.961743 4750.543954 4779.109292 4773.503995 4792.194829 4723.162853 4690.340197 4615.954455 4570.408058 4527.810027 4397.852742 4385.576924 4229.051416 4134.344668 3936.182643 3982.907952 3838.339576 3698.824804 3839.793897 3527.128805 3610.478476 3539.679542 3903.548161 2775.302332 3197.278779 3399.581887 1695.082582 208.339622 -216.430199 20080.151527 16510.029033 9510.306887 11844.699064 12042.377388 11808.713086 12219.600610 12360.597725 14888.992402 13647.045375 16524.797662 15624.858514 18492.125046 15877.844830 21172.843158 15825.753633 21584.827085 19707.813077 18452.828046 22971.844020 17282.602484 17324.606605 18131.043674 16709.654880 5143.495743 16308.332696 17545.658265 17014.126677 9826.860520 5451.359813 10146.478999 12696.255848 12498.153178 11409.905084 10534.546687 9979.983999 9501.043453 8991.815718 8391.939856 7840.743592 7420.380116 7108.296572 6861.744275 6622.427341 6366.012555 6096.164056 5826.219785 5571.634142 5339.139408 5127.374843 4931.542357 4746.849482 4570.989177 4404.459738 4249.417732 4108.394157 3983.223080 3874.555108 3781.864298 3703.745088 3638.312886 3583.566814 3537.653006 3499.019183 3466.480418 3439.224821 3416.783204 3398.977213 3385.851308 3377.588626 3374.410480 3376.463604 3383.706594 3395.814773 3412.127746 3431.662951 3453.208936 3475.493277 3497.394556 3518.142422 3537.435166 3555.411007 3572.444284 3588.799584 3604.241763 3617.748296 3627.487897 3631.117968 3626.370556 3611.853180 3587.495492 3554.750475 3516.718079 3476.448801 3437.163005 3402.837625 3372.815950 3351.263564 3341.185904 3336.266294 3349.853856 3373.718777 3394.079725 3432.063257 3456.512725 3441.343454 3465.553177 3408.326764 3385.709039 3347.571308 3301.023352 3295.407172 3218.723076 3209.331621 3087.237118 3084.254800 2911.078617 2812.209017 2753.429351 2676.962796 2583.551605 2818.425603 2266.883151 2559.618983 1835.876865 1798.303935 3028.490524 663.207499 2198.566668 62.369538 -452.362350 18602.386442 15054.682986 8691.234021 10405.644908 12167.193694 11349.853614 12176.196154 12890.441874 12247.627904 13440.707123 14282.083201 14574.496671 16177.607419 16163.713811 18444.156622 14980.306265 22377.765086 11311.853315 24994.064643 11257.364935 14974.319861 18384.089133 9246.739511 14619.083886 13508.217629 -1529.897600 7513.707351 11374.907786 11009.031756 11555.847841 9787.643926 3924.058345 1347.296224 2148.121066 3324.840902 4778.340852 5066.476899 4967.211581 4719.829575 4389.635591 4120.231490 3923.680746 3782.436446 3658.430208 3532.388398 3401.315306 3269.145671 3143.898097 3029.243350 2924.499798 2827.090736 2734.253002 2644.621242 2558.489844 2477.182328 2402.332090 2335.229756 2276.505765 2226.100814 2183.415160 2147.531931 2117.428222 2092.134249 2070.831110 2052.895944 2037.909857 2025.642324 2016.020991 2009.090889 2004.964173 2003.761324 2005.547095 2010.268418 2017.705367 2027.448510 2038.914572 2051.406245 2064.210903 2076.718754 2088.527487 2099.493785 2109.697833 2119.308335 2128.371966 2136.587466 2143.147491 2146.744592 2145.767032 2138.643384 2124.346925 2102.701103 2074.431486 2041.530075 2006.315994 1971.006994 1939.631884 1913.471363 1894.556456 1888.869897 1892.440008 1907.678586 1939.069973 1970.100528 2004.430031 2042.999422 2050.227384 2076.552225 2060.725424 2055.491943 2056.067621 2020.150098 2030.416678 1989.085327 1975.964900 1895.964550 1851.672428 1786.847663 1703.948820 1471.492068 1643.397279 1559.539457 1637.214755 1052.895421 1596.778047 1123.249465 2092.963738 -20.287853 535.746976 2284.865231 -239.299502 -387.929848 17202.415615 13775.336167 8446.585258 10492.004199 11790.714570 10990.340658 11706.111888 10851.003696 11281.503418 12170.674733 12292.187159 14296.823886 13850.287880 16448.649280 14000.582837 18178.829411 14878.222721 20341.329112 11493.774020 21944.821586 10637.534770 16276.225458 22966.183914 -20019.516167 -3769.428414 -21705.475624 6781.992056 -7823.750169 9602.856052 9663.813447 7047.130280 3496.111763 9154.734236 10537.545612 6942.286167 5200.183348 4143.067996 3417.224191 2998.121567 2660.532549 2403.716709 2221.465548 2091.315572 1982.634700 1882.598770 1785.193015 1690.727181 1603.369730 1524.752435 1454.508212 1391.099727 1332.654220 1278.021870 1226.902674 1179.604490 1136.681956 1098.586298 1065.486449 1037.233000 1013.421028 993.496433 976.860382 962.949946 951.288204 941.507379 933.352367 926.671644 921.400291 917.537531 915.119719 914.189604 914.763854 916.802643 920.186858 924.709241 930.084734 935.981882 942.071522 948.082143 953.845390 959.313131 964.532023 969.573321 974.434254 978.944674 982.717955 985.188512 985.744198 983.895887 979.499287 972.891104 964.710040 956.031402 948.092446 941.171526 936.475178 934.766155 933.486647 935.990973 942.286409 943.915781 951.758187 962.291751 955.349828 960.958041 963.132282 940.752136 943.498820 927.999587 916.893157 911.380299 880.566782 881.048491 861.582916 815.004229 802.187538 751.399162 740.735842 819.623501 705.750844 477.701729 623.224439 938.564969 844.062709 657.084129 413.822198 776.417522 857.517806 -5998.330340 -541.087292 -63.135123 15839.473607 12483.721000 7879.102571 9310.615027 10144.058514 8974.450603 9515.311428 9313.613868 10497.652171 10509.006924 12054.376805 12239.613871 13009.221057 14376.861577 12751.433213 17242.983094 10887.625069 20408.084455 15825.168766 11645.684973 13775.791147 20018.126007 -2673.754146 -73.471320 -0.127319 14483.118724 11127.386710 6977.334624 8649.734448 9073.632388 8499.485225 9200.020479 9012.065605 9627.064701 9495.340150 10900.461448 10671.836908 12716.150003 12191.997559 13282.073555 13990.737876 13525.244891 13489.239938 16771.870045 9873.041672 10229.802937 -12623.656761 -7.219592 0.000000 0.000000 13131.708062 9822.334583 5909.925360 8509.057483 8981.654776 8568.216945 8371.754389 8048.394162 8287.647291 8570.631084 9589.907466 9856.495087 11402.182735 11462.908596 12127.144357 12756.005233 13019.101124 12529.167621 17371.231252 15106.407191 10340.352826 26097.243908 0.000000 0.000000 0.000000 11786.783003 8661.700003 4873.658292 7767.389581 7591.788582 7388.080719 7226.115599 7468.226938 7475.739476 8038.052643 8800.602455 9664.613967 10240.970964 11152.716102 10709.762739 12676.134654 10404.168461 14875.171697 11476.006079 13340.204019 -6037.424536 26107.415012 0.000000 0.000000 0.000000 10448.547359 7645.046729 4213.266722 7524.867331 7142.212177 7116.277107 6645.953952 7086.507061 7195.381333 7734.354868 8076.700924 9146.100807 9715.246687 10312.013215 10552.658434 11377.276837 10324.206592 13508.238897 8306.995336 14859.407868 13664.983832 3278.749771 0.000000 0.000000 0.000000 9144.298761 6705.659807 3416.703343 7075.613168 6727.103823 7109.107564 6593.203261 6618.306876 6534.568063 7339.036306 7874.085453 8139.025710 9345.639753 9290.933443 10636.411302 9249.342277 11630.350035 10323.215739 11217.336582 15989.124609 7241.019837 2940.219212 0.000000 0.000000 0.000000 7905.167726 5929.981842 2998.203405 6510.258300 5922.724042 6093.639842 5920.983199 6484.027092 6346.928573 6279.328605 7552.712572 7786.225952 8881.447889 8609.339706 10394.414715 8373.824617 11158.728808 8479.906297 11454.636504 9098.569230 5052.919253 27540.882902 0.000000 0.000000 0.000000 6759.294207 5080.869908 2105.028988 5464.233810 5390.139641 5655.259899 5341.198014 5435.926074 6373.842826 6282.314864 6786.792109 7305.398262 8575.448238 8143.518342 9743.806445 8820.891703 9898.224376 8764.721788 10775.190360 5659.100276 8146.286994 430.002766 0.000000 0.000000 0.000000 5789.825525 4228.939663 977.925513 4646.521112 4453.783558 4759.411864 5443.680497 5293.312169 5411.268092 6184.593369 6824.221053 6604.396139 8351.971444 8074.641749 8993.035904 9079.092769 9343.099249 8715.226732 9239.712966 9114.121718 8986.760981 -2934.802490 0.000000 0.000000 0.000000 5140.342282 4216.152920 -9.882055 3912.561496 4651.557183 4426.031180 4325.267170 4944.954732 5256.414312 5150.009150 6559.230305 6295.224013 7392.539981 7811.274480 8187.174313 8625.765351 8806.161568 8642.933325 7278.229952 10041.481440 4551.074266 2296.514211 0.000000 0.000000 0.000000 4183.578737 3431.605034 1194.245616 2134.387230 2830.159238 3454.827069 4335.017835 4036.103042 4917.666123 4871.071789 5512.252541 6046.769935 6255.126845 7047.690873 7241.801486 7716.054048 7778.958734 8423.994500 6670.325635 9362.275761 477.330477 7891.128102 0.000