<VTKFile type="PolyData">
<PolyData>
<Piece NumberOfPoints="6736" NumberOfVerts="6736" NumberOfLines="0" NumberOfStrips="0" NumberOfPolys="0">
<PointData>
<DataArray type="Float64" Name="Pressure" format="ascii">
 42672.901671 41291.521128 39489.794505 38442.216745 38473.894740 38912.442365 39124.584969 39438.958808 39754.954732 39131.665653 38366.317087 37565.801602 37403.587389 37780.639479 38053.989183 38960.860621 39644.929870 39820.122406 38778.247984 38275.339152 37854.824454 37262.544977 36956.512591 36622.913832 36303.945677 35909.048003 35542.317269 35296.678514 35083.638277 34775.386609 34341.333298 33877.114967 33498.679107 33220.737472 32973.056780 32675.787624 32296.533485 31856.937690 31391.207626 30922.812742 30454.208491 29978.096488 29492.234377 29001.024162 28515.092124 28040.241727 27574.481557 27114.960249 26662.722482 26218.815504 25779.117677 25341.189448 24910.242920 24492.242308 24088.256804 23697.749721 23320.411730 22954.136364 22595.519361 22241.515241 21889.541096 21537.195337 21182.903249 20826.909459 20471.089606 20118.422912 19772.426928 19436.539603 19113.596788 18805.384897 18512.415101 18234.136277 17969.452191 17717.227739 17476.616954 17247.169341 17028.761497 16821.443827 16625.293300 16440.322823 16266.451444 16103.520419 15951.342063 15809.747421 15678.605262 15557.808007 15447.233521 15346.698712 15255.920699 15174.496051 15101.901678 15037.515100 14980.646817 14930.576732 14886.588198 14847.994379 14814.154424 14784.480169 14758.435830 14735.533861 14715.329938 14697.419408 14681.436645 14667.057837 14654.006930 14642.063803 14631.073295 14620.953449 14611.701210 14603.393888 14596.184935 14590.293022 14585.984037 14583.546486 14583.261767 14585.371827 14590.047640 14597.362510 14607.274256 14619.619661 14634.123131 14650.419506 14668.088589 14686.696813 14705.839831 14725.179316 14744.467868 14763.557806 14782.392323 14800.980647 14819.361780 14837.563600 14855.565134 14873.269301 14890.491589 14906.967104 14922.374924 14936.375378 14948.653454 14958.960599 14967.147807 14973.185063 14977.165232 14979.293616 14979.866949 14979.246811 14977.831922 14976.032480 14974.246819 14972.838690 14972.112951 14972.285234 14973.447980 14975.532308 14978.272534 14981.187998 14983.576266 14984.554664 14983.116968 14978.236903 14968.998500 14954.685150 14934.949667 14909.770729 14879.579734 14845.078488 14807.169679 14766.919131 14725.056118 14682.507226 14639.422768 14596.167529 14552.482755 14507.975669 14462.352207 14414.664566 14364.956636 14312.040380 14256.862994 14198.490037 14138.437248 14077.066318 14014.570829 13952.180867 13889.943205 13825.613185 13760.816388 13693.204478 13621.295394 13539.236371 13458.626609 13358.030065 13255.728133 13165.667130 13054.873674 13028.937984 13217.438697 13418.086388 12996.035288 11703.617956 11042.881172 11260.648586 11187.153749 10090.400662 7737.466363 6186.613268 40286.893342 37034.529381 32132.540361 29828.553151 30464.527876 32321.899400 32636.749478 32921.039069 33387.505587 30883.979719 30608.814376 29660.894122 28721.180532 30932.298036 29769.238981 33445.583089 32862.946559 35987.882774 34368.485640 34528.533783 34780.560982 32550.797074 32849.063764 32026.020824 32531.645826 32429.867951 32043.625931 32003.151314 32587.215516 33337.671780 33468.159276 32855.888383 32130.372567 31868.341614 32156.314511 32667.061110 33043.680825 33151.471088 33039.647504 32846.956882 32646.601711 32460.385685 32282.292594 32092.427546 31887.526851 31658.595248 31402.309997 31131.029662 30864.825956 30605.644229 30333.670803 30044.945909 29753.485630 29471.120824 29194.497462 28935.093545 28705.864929 28507.254819 28340.672710 28211.766163 28120.657025 28058.709943 28001.014702 27919.794594 27793.488125 27610.272133 27369.305968 27080.145798 26760.022426 26429.812160 26107.596971 25804.104560 25522.160883 25258.769380 25008.240373 24765.050713 24525.602469 24288.633724 24054.651430 23825.006952 23601.086347 23383.720515 23173.039256 22968.760478 22770.606153 22578.651626 22393.491690 22216.195948 22048.102986 21890.544469 21744.587375 21610.856339 21489.460684 21380.016746 21281.746352 21193.620462 21114.506515 21043.290684 20978.964221 20920.674085 20867.744757 20819.680886 20776.159902 20737.021194 20702.254972 20671.990601 20646.481599 20626.083134 20611.217863 20602.327274 20599.808177 20603.937305 20614.790719 20632.168179 20655.535270 20683.996777 20716.313076 20750.966461 20786.276706 20820.555652 20852.281141 20880.263539 20903.775671 20922.620519 20937.120532 20948.026109 20956.355979 20963.195579 20969.488366 20975.857333 20982.489423 20989.104450 20995.014595 20999.263092 21000.814930 20998.761676 20992.499704 20981.847209 20967.079453 20948.880355 20928.227336 20906.240062 20884.029399 20862.578243 20842.672506 20824.883935 20809.586373 20796.979032 20787.088398 20779.721668 20774.387147 20770.176402 20765.668427 20758.912426 20747.459278 20728.643483 20699.835785 20658.941665 20604.867993 20537.694524 20459.290260 20372.500552 20281.750521 20191.458704 20105.936033 20029.116678 19961.907200 19906.604979 19859.926923 19822.183410 19789.284018 19758.497473 19729.273880 19695.380251 19660.735148 19617.063739 19573.627426 19520.988751 19472.336897 19422.767540 19375.766577 19338.663544 19300.052135 19260.353673 19224.390435 19168.858136 19106.304313 19026.332947 18952.532918 18809.160854 18711.118682 18582.897420 18389.912929 18479.322840 18501.400722 18540.124352 19977.293973 21693.827669 22705.432304 18176.614865 16695.833476 18859.335579 18588.675902 18273.618265 10836.797923 6340.104798 37667.375201 31643.377062 22774.899192 21108.984238 23793.400479 24200.227159 23825.425390 23571.161375 24260.674700 21898.596806 23610.080963 22829.878399 21803.557558 25075.290698 22362.632750 27512.130796 25950.396818 29342.295769 28441.775196 27515.287516 28264.909066 25020.234746 24888.440127 24257.332005 26305.186436 27442.550546 26930.022996 26815.412629 28470.014914 31275.674987 32816.045742 32033.967681 30288.234211 29372.978315 30077.542862 31610.722261 33097.332240 34052.262067 34430.284300 34581.483775 34602.414074 34653.472568 34771.730152 34993.398704 35375.939647 35719.516484 35908.678573 35924.106441 35783.265444 35489.686844 35043.177361 34654.991259 34474.997763 34371.913144 34199.441197 33971.247131 33735.591121 33468.685832 33181.729199 32980.320064 32989.043641 33304.884588 33869.958738 34545.591561 35196.504479 35708.407830 36003.534188 36055.399562 35889.001365 35568.794116 35176.686600 34784.280069 34435.162818 34143.008175 33898.532713 33681.119519 33470.033273 33251.488985 33020.515745 32779.090286 32532.477778 32285.491446 32040.257127 31795.923881 31549.828830 31299.088905 31042.131864 30779.571457 30514.255123 30250.651109 29993.898998 29748.825848 29519.203130 29307.331871 29113.949324 28938.480622 28779.470093 28635.047412 28503.338698 28382.774002 28272.277433 28171.349763 28080.065218 27999.006336 27929.156657 27871.764222 27828.182530 27799.691841 27787.303672 27791.555044 27812.305748 27848.560078 27898.342090 27958.657839 28025.576504 28094.452480 28160.291319 28218.235175 28264.112529 28294.969829 28309.488111 28308.192921 28293.393947 28268.837950 28239.114937 28208.909906 28182.228285 28161.734081 28148.323541 28141.016852 28137.193384 28133.131844 28124.756692 28108.448106 28081.755450 28043.870472 27995.766013 27939.979712 27880.102642 27820.099457 27763.622094 27713.470424 27671.307921 27637.664364 27612.167681 27593.900541 27581.713216 27574.368038 27570.485407 27568.182465 27564.741652 27556.239874 27537.375226 27502.144117 27444.045884 27358.068236 27241.496202 27095.022507 26925.073582 26740.189911 26555.664170 26384.516712 26241.770641 26138.757380 26076.587590 26062.764664 26077.679846 26127.144373 26183.618401 26245.135131 26305.157721 26339.409209 26376.639413 26370.823272 26375.996471 26332.076860 26318.702067 26272.698976 26252.191599 26263.741716 26247.523782 26286.609917 26298.209680 26252.797755 26241.210291 26099.953901 26008.114482 25737.500434 25700.371393 25283.410825 25164.880971 25029.720831 24561.923299 25101.181179 24920.496399 24477.847933 26058.667916 27678.802216 29418.260542 24856.686869 23510.459132 27225.826513 23529.621070 26786.860808 15607.882513 5612.436718 35609.276812 29103.234351 21354.246469 21306.881406 24726.033044 21999.227690 22860.488941 20794.848590 23470.048911 24215.379077 23683.940579 23444.650077 23377.803326 23519.912937 26283.689968 26008.075429 28013.460733 24732.923153 25722.266708 23858.415685 24530.468503 25481.408999 26509.447478 27119.079619 28285.361056 29474.968236 30178.924749 29905.461432 29688.429885 30282.626400 31505.736198 32805.618048 33388.691208 33792.454764 34059.000765 34329.556979 34745.435228 34924.411294 35103.534733 35261.930618 35409.650387 35802.141431 36255.151177 36654.684361 36910.379120 36802.309766 36399.881146 35873.522548 35386.904370 35142.841088 35164.245507 35322.503912 35427.121162 35376.541377 35199.297709 34919.925674 34528.932458 34086.657156 33734.291838 33601.416865 33727.693849 34089.656852 34614.532765 35222.829696 35830.188729 36346.842087 36694.478001 36828.142794 36747.711155 36494.410486 36132.902399 35731.377276 35345.607160 35007.470151 34722.891487 34478.401767 34252.185411 34024.309483 33782.716954 33524.481315 33253.530824 32976.600384 32699.555369 32425.424863 32154.186644 31883.837606 31612.045387 31337.601430 31061.206849 30785.507918 30514.522450 30252.765354 30004.403578 29772.606881 29559.190155 29364.582505 29188.086914 29028.288782 28883.492085 28752.099566 28632.890107 28525.177969 28428.860631 28344.373795 28272.575626 28214.580648 28171.560234 28144.523867 28134.094943 28140.297317 28162.373209 28198.657972 28246.540038 28302.532503 28362.473883 28421.858404 28476.272023 28521.883010 28555.912252 28576.996242 28585.361817 28582.758416 28572.137520 28557.120539 28541.343297 28527.795406 28518.278895 28513.090754 28510.992924 28509.478845 28505.288062 28495.070210 28476.066911 28446.672850 28406.759703 28357.696698 28302.069935 28243.173614 28184.400497 28128.681101 28078.104774 28033.795555 27996.045052 27964.623826 27939.116976 27919.182327 27904.553831 27894.781146 27888.888491 27884.680490 27878.617426 27865.658746 27839.313145 27793.590056 27722.277013 27622.645190 27495.069425 27342.747773 27177.117058 27005.532060 26846.299624 26706.935588 26597.940052 26527.881331 26482.146925 26479.526072 26476.978051 26504.790263 26521.603741 26535.662380 26559.287387 26538.243844 26551.346082 26493.266649 26489.905695 26393.899790 26388.271907 26318.361906 26272.609077 26312.206664 26228.187417 26244.300882 26213.068916 26069.288505 26017.221830 25781.053067 25743.484971 25284.136453 25409.542844 24867.111623 24826.945881 24724.229069 24411.812219 24515.572218 24297.112841 24233.464605 24023.095849 23206.542854 23364.218093 24027.873721 25213.553251 24671.191121 24909.024779 20626.835284 12250.594183 4610.064561 34153.310895 26811.330073 20571.919831 24375.900091 23187.933406 22801.121766 22665.555940 22189.100432 22897.716757 21029.891968 24031.871150 21847.870645 24460.721971 23219.110157 27399.277912 25757.283421 27419.296290 25432.678471 26511.534892 25657.345621 27166.198958 26462.157324 26562.617749 27356.937179 28620.541247 28731.313057 28334.175859 28525.172642 29776.953966 30520.339977 30387.916011 30310.190883 30311.795670 31110.010165 31855.490069 32224.504698 32508.742922 32424.944738 32553.455299 32859.870119 33169.171044 33666.178539 34051.920028 34328.350637 34534.942597 34500.167029 34292.717632 33998.914237 33757.360038 33648.525490 33534.499933 33356.205567 33145.996201 32913.784535 32697.734468 32534.304142 32413.673967 32312.029630 32266.332816 32317.107460 32426.809776 32537.487349 32637.851477 32744.290574 32868.697263 33006.803823 33131.992660 33204.899444 33190.437653 33070.570706 32849.768607 32554.544971 32224.026223 31896.439210 31597.912271 31337.596800 31109.849809 30900.795388 30695.380133 30482.440587 30256.888956 30019.013237 29772.226223 29520.649621 29267.542548 29014.755021 28763.062762 28512.911668 28265.113433 28021.211576 27783.451701 27554.453011 27336.777612 27132.548873 26943.170112 26769.205672 26610.450684 26466.136130 26335.196006 26216.531746 26109.228336 26012.698016 25926.745481 25851.560758 25787.652349 25735.735190 25696.587585 25670.890288 25659.060712 25661.096381 25676.443805 25703.910913 25741.641317 25787.165378 25837.535079 25889.537170 25939.963748 25985.904883 26025.018519 26055.732505 26077.343709 26089.997928 26094.556903 26092.379278 26085.055915 26074.144442 26060.943954 26046.340722 26030.741972 26014.099302 25996.007741 25975.853329 25952.974499 25926.803564 25896.965135 25863.325690 25826.006473 25785.383919 25742.100357 25697.094106 25651.639469 25607.356536 25566.154113 25530.071552 25500.971798 25480.200629 25468.156132 25463.908025 25465.208862 25468.170261 25468.008300 25459.421333 25436.540066 25395.832578 25333.136972 25248.279813 25143.166065 25018.601750 24885.492713 24742.646416 24605.092563 24473.274862 24351.501246 24254.925605 24160.561622 24109.679768 24052.910559 24040.093569 24032.595303 24032.996739 24064.138329 24049.709491 24079.624485 24020.715825 24045.368083 23928.590460 23952.681816 23885.194156 23807.426826 23880.969482 23746.670658 23735.965059 23727.024766 23603.013773 23563.096791 23463.499825 23503.350614 23081.002964 23316.136580 22870.061698 22854.078159 22675.268167 22784.557993 22543.518774 22635.866893 23532.511005 22944.974818 25370.038519 23674.115886 25764.985938 20301.775259 22238.919543 20896.854679 14749.184933 8083.548128 4192.525707 34467.392370 27161.739018 19887.165615 20695.501646 22144.284717 22365.451487 21281.418586 22652.107843 22512.681243 24276.493071 21876.242326 22574.333200 23483.886810 23316.329676 24992.949547 24685.437663 24988.300394 25284.682904 24808.434330 24967.288832 24183.097135 24272.211340 25617.725575 25768.422983 26051.125729 26852.823686 28305.025582 29564.244668 29650.224253 28466.166900 28216.483644 29523.821487 30752.378415 31554.762288 31529.049722 31296.640663 31435.706029 31586.521311 31911.920160 32195.975314 32380.055206 32645.695327 32881.962120 33189.811605 33492.612261 33622.510975 33631.957496 33504.116850 33315.503644 33205.660552 33155.515309 33070.600399 32874.701772 32597.352972 32302.716054 32012.383163 31774.517769 31622.836594 31559.453869 31607.685054 31765.357330 31977.983040 32192.905096 32388.896103 32563.909299 32718.591040 32845.753096 32926.806733 32938.424303 32863.414688 32698.725811 32458.481563 32170.162260 31865.542847 31571.002153 31301.206597 31058.063679 30834.221400 30618.555447 30401.095665 30175.894452 29941.393807 29698.981732 29451.117346 29199.946809 28946.749476 28692.154033 28436.758102 28181.729240 27929.101720 27681.682174 27442.654015 27215.066847 27001.385504 26803.201251 26621.147363 26455.007123 26303.955156 26166.856690 26042.557496 25930.117342 25828.962358 25738.950690 25660.358635 25593.801123 25540.102533 25500.133438 25474.628082 25463.997447 25468.154249 25486.368605 25517.175227 25558.352997 25606.993924 25659.669508 25712.688603 25762.423807 25805.666790 25839.961167 25863.858628 25877.051857 25880.355633 25875.531817 25864.979948 25851.338049 25837.054368 25823.997633 25813.169565 25804.568480 25797.227785 25789.421794 25778.999619 25763.783811 25741.960408 25712.394183 25674.824290 25629.923712 25579.233009 25524.994839 25469.921088 25416.924791 25368.828857 25328.077708 25296.472427 25274.902322 25263.219790 25260.121571 25263.114362 25268.912926 25273.167384 25271.342339 25258.916476 25230.675599 25184.125141 25115.121590 25023.357927 24910.915785 24776.912348 24634.079898 24480.502576 24333.243404 24197.032902 24074.677918 23989.430737 23914.127937 23890.384692 23870.894659 23887.849752 23910.970865 23928.993897 23951.735376 23935.282923 23922.018461 23835.231649 23830.886697 23663.892115 23688.646980 23589.177838 23500.133615 23575.013237 23439.439070 23416.853457 23434.914471 23339.712906 23233.358824 23223.324182 23127.896732 22745.219113 22890.144955 22370.888214 22560.568902 22014.812699 22466.028178 21710.847173 22212.801636 21803.619121 22529.966576 21518.900683 25305.699532 22784.731851 18644.222480 21012.553812 17860.676820 18745.477055 8886.375196 3948.758253 34153.838243 27212.852120 20015.007147 21011.723128 21514.341179 20596.771549 20903.982345 21036.427332 21930.604147 21088.108216 22189.940621 20991.020253 23972.091679 23979.022041 24384.905504 25299.544549 24933.719167 24096.270096 24861.197271 23850.430014 24340.243805 25427.984210 26085.681692 26110.114785 26710.829696 27389.353769 27480.722466 26940.048180 26743.573660 27880.547617 29590.299885 29855.631776 28953.835860 28533.136377 28918.637890 29718.974711 30345.879075 30599.364385 30763.807598 30995.021372 31365.239735 31720.395785 31939.146464 32099.666456 32203.785793 32298.971592 32365.222258 32313.718010 32207.200500 32071.844499 31937.879049 31885.045714 31822.090869 31676.281244 31517.884103 31358.496929 31180.497368 31018.668796 30881.358932 30744.262425 30608.875200 30493.220868 30412.088595 30387.980343 30442.125856 30573.592368 30754.485744 30934.518390 31055.063799 31070.210085 30962.129414 30744.787646 30455.775476 30140.516231 29836.842688 29565.839868 29330.592174 29121.143648 28922.141446 28719.758000 28505.813560 28278.568314 28040.987381 27798.002529 27554.123248 27312.139048 27073.011049 26836.578853 26602.537860 26371.221768 26143.939252 25922.852466 25710.550030 25509.523865 25321.730699 25148.343846 24989.718006 24845.527530 24715.007680 24597.225360 24491.320436 24396.680599 24313.033940 24240.459945 24179.330186 24130.195312 24093.636776 24070.101905 24059.740711 24062.263006 24076.834476 24102.029568 24135.855734 24175.856761 24219.291827 24263.372920 24305.528698 24343.652038 24376.285540 24402.706837 24422.893716 24437.373999 24446.990775 24452.632914 24454.988693 24454.374666 24450.674158 24443.394313 24431.823260 24415.245939 24393.163616 24365.461740 24332.484486 24294.999454 24254.067077 24210.857504 24166.474345 24121.844254 24077.709239 24034.722678 23993.614470 23955.344833 23921.177672 23892.615873 23871.122203 23857.794233 23852.896664 23855.412979 23863.135776 23872.134124 23877.639017 23874.511952 23856.547190 23820.663159 23762.502124 23681.647966 23581.679781 23461.627468 23335.196441 23201.041241 23071.619546 22954.039909 22841.029938 22755.847565 22669.746941 22611.208710 22557.150893 22512.590141 22484.797067 22450.965005 22421.427499 22390.211374 22340.568598 22265.518706 22244.741525 22094.929189 22104.842376 22030.364862 21923.948706 22000.754796 21876.832739 21832.697256 21803.624971 21765.025414 21576.798917 21571.087945 21548.203176 21212.548014 21318.710601 21010.490108 21191.460218 20789.903831 20994.198694 21094.007655 20663.925632 21618.142769 21939.218855 22618.045307 21297.811345 24900.677089 22078.179390 21461.587851 19693.340181 15655.622174 8446.135841 3612.986862 32332.023638 23107.665492 15192.569718 22589.145779 19121.983460 19958.110806 20863.651231 20562.186024 19879.356779 21021.900582 21575.954444 20664.916290 21547.596036 21855.013771 22254.360248 24312.811821 21960.233324 24882.398787 23547.640718 24156.055449 25272.516975 24639.093426 24823.782439 25280.564920 25621.302694 26213.183106 25741.313392 26145.930160 27450.390831 27922.053281 26981.257587 26133.273739 27349.864778 29062.274109 29649.110582 29210.072263 28506.354099 28271.578695 28371.543601 28590.911855 28972.648004 29403.463414 29942.449486 30524.147933 30900.128418 31144.829428 31356.502556 31483.708974 31569.264786 31592.561642 31469.581261 31253.742722 31019.941948 30750.533152 30458.909086 30236.147094 30115.060144 30067.094092 30080.437600 30105.980471 30067.701347 29943.914833 29761.217475 29574.656815 29455.505720 29452.036057 29564.662243 29747.205873 29923.032805 30014.693566 29973.044737 29791.661556 29502.975693 29160.166922 28815.175884 28502.926757 28235.914314 28007.866852 27802.310207 27601.492819 27392.579409 27170.007500 26934.566429 26690.704926 26443.671452 26197.566210 25954.650249 25715.676008 25480.725438 25250.043180 25024.535056 24805.837092 24596.044813 24397.283959 24211.304118 24039.216809 23881.421287 23737.696660 23607.402194 23489.718403 23383.871258 23289.300714 23205.754759 23133.306634 23072.304031 23023.265251 22986.739817 22963.151726 22952.643427 22954.938670 22969.242065 22994.191960 23027.879619 23067.940829 23111.715714 23156.459904 23199.578071 23238.842801 23272.561416 23299.662325 23319.689488 23332.714323 23339.192632 23339.804152 23335.311161 23326.460835 23313.938298 23298.359508 23280.281246 23260.202947 23238.542409 23215.581767 23191.397041 23165.798683 23138.317690 23108.268827 23074.908316 23037.680362 22996.515567 22952.114585 22906.135360 22861.187187 22820.584146 22787.859140 22766.046778 22757.006336 22760.776875 22775.166031 22796.125100 22817.646834 22833.092421 22836.183969 22820.334259 22782.917273 22720.888032 22634.606525 22529.363975 22404.422769 22272.888890 22135.079338 21998.731347 21875.274969 21753.546898 21657.760638 21567.754540 21500.766310 21456.594746 21420.556682 21418.334490 21412.491170 21410.901287 21404.885181 21360.185383 21287.248841 21227.378027 21077.314829 21014.746164 20955.942547 20813.373446 20875.577723 20779.249528 20736.867204 20674.368051 20700.757029 20548.844477 20468.330546 20601.834973 20206.468095 20353.076853 20025.479576 20033.930651 19939.588695 19628.920322 19983.370128 19400.412999 20006.629727 19100.920236 21551.188546 20353.894711 20609.830613 19808.322637 20658.751468 21208.771528 14161.679742 6815.170888 3667.653558 31640.738799 23367.519590 16937.766927 18891.283519 16991.655835 22139.955807 20175.910958 20289.379554 20029.112024 18932.192039 19741.051111 21713.466863 20400.884704 21284.710754 22789.703075 21271.784976 24225.364188 23432.480325 23207.221381 23914.944370 23730.132909 23516.131051 24970.784567 24749.996049 25121.872532 25728.610549 25537.936882 27013.993047 26793.326432 25442.903221 26312.107492 28238.611117 28880.241237 27438.862334 26132.316057 26513.004403 27599.258369 28582.706206 29077.411812 29260.477260 29440.215247 29479.061831 29426.906583 29425.940521 29513.539888 29697.245481 29872.996574 30017.893358 30176.458911 30316.587268 30446.721215 30523.122073 30486.446817 30380.528823 30176.642709 29875.110100 29592.143371 29352.087565 29136.136336 28956.841019 28776.707714 28558.103427 28319.595933 28107.684679 27980.937674 27985.315955 28122.822337 28347.355670 28580.012113 28736.912207 28760.236242 28636.049300 28392.616855 28082.909224 27761.380825 27466.271343 27212.836478 26996.510294 26801.637101 26610.840595 26411.602437 26198.795262 25973.718149 25741.237621 25506.768711 25274.257006 25045.529415 24820.747624 24599.392056 24381.216308 24166.818340 23957.728787 23756.115871 23564.305044 23384.312079 23217.525160 23064.588324 22925.468393 22799.646180 22686.360513 22584.842301 22494.495182 22415.000503 22346.342480 22288.762050 22242.655316 22208.435951 22186.381888 22176.486643 22178.334989 22191.021596 22213.128500 22242.772112 22277.721880 22315.581008 22354.006399 22390.933229 22424.763269 22454.478630 22479.655265 22500.371598 22517.032003 22530.145694 22540.112722 22547.066515 22550.807069 22550.834945 22546.470125 22537.019059 22521.943209 22500.985699 22474.227702 22442.068453 22405.145749 22364.231428 22320.143679 22273.712700 22225.819657 22177.500938 22130.079828 22085.268543 22045.161173 22012.075131 21988.235447 21975.288378 21973.874218 21983.221479 22000.888575 22023.183239 22045.014502 22060.898932 22065.816119 22054.112737 22023.388754 21970.805162 21895.465513 21802.242096 21689.773579 21569.208682 21443.849275 21317.505475 21205.223562 21094.881196 21005.462309 20924.226477 20853.929241 20802.863183 20748.284685 20716.624692 20670.029850 20626.525717 20563.454947 20477.065357 20359.365375 20256.930026 20112.567166 20001.735073 19977.801187 19831.321424 19882.613359 19808.003407 19767.271073 19686.337782 19658.258799 19607.477150 19368.593094 19538.100149 19219.548652 19173.583169 19024.037031 18960.984421 18817.145944 18744.953788 19031.600027 18542.238336 18733.387977 19372.316479 19417.277392 20571.321793 20066.619183 18499.483915 22477.543539 16845.775915 16703.685390 8741.836058 3283.897411 30811.378322 24174.566028 19379.283044 18787.602652 19654.991478 21214.683194 17382.435815 20817.055748 19012.533061 19220.532486 19607.918570 19256.369482 20674.789797 20979.584168 22063.487775 22178.139022 23061.037335 21671.024655 23410.281322 23220.178050 23269.836948 24559.279275 24669.987108 24362.525653 25274.450008 24985.524388 24901.513981 25135.668145 24131.702112 25567.579008 27438.037789 25919.950718 24104.902147 25123.450843 27502.965291 28563.988186 27808.415263 26872.133837 26582.726227 26630.769077 26801.158242 26979.403634 27292.674063 27741.756231 28141.162283 28500.107941 28808.361789 29024.654576 29204.596157 29308.386172 29326.199082 29340.728494 29315.942827 29255.624595 29209.497860 29106.879705 28952.204039 28801.586030 28608.068658 28338.730126 27997.801341 27585.476512 27149.080105 26774.456424 26539.824680 26491.681621 26621.483783 26862.984854 27116.014169 27280.640043 27291.299086 27135.622997 26849.930341 26497.282082 26140.374952 25821.611793 25556.239840 25336.850856 25143.875928 24956.475051 24760.005655 24548.736631 24324.536855 24093.420508 23861.943936 23634.788279 23413.954373 23199.265603 22989.522067 22783.661386 22581.509713 22383.990035 22192.880807 22010.333696 21838.367616 21678.494196 21531.543149 21397.680239 21276.563514 21167.566840 21070.005721 20983.318576 20907.177927 20841.524686 20786.532425 20742.516813 20709.809528 20688.617315 20678.886719 20680.193989 20691.677690 20712.027859 20739.539463 20772.228753 20807.999557 20844.834414 20880.975946 20915.060742 20946.174188 20973.810773 20997.747616 21017.863572 21033.954670 21045.602292 21052.139767 21052.737291 21046.590456 21033.163838 21012.418828 20984.952328 20951.992796 20915.238191 20876.566145 20837.686651 20799.829811 20763.558377 20728.766618 20694.880881 20661.221186 20627.433847 20593.879380 20561.845403 20533.505498 20511.603772 20498.857896 20497.318604 20507.703323 20528.841947 20557.816157 20589.694321 20618.344305 20637.528726 20640.004448 20621.382514 20577.789023 20506.940217 20413.754710 20298.153933 20170.581448 20038.690123 19904.556671 19784.953511 19670.085509 19571.903313 19484.983580 19404.708714 19341.818462 19279.711161 19239.952372 19194.600800 19165.604730 19116.596775 19065.520491 18968.555613 18887.478539 18761.326110 18634.786882 18601.450787 18456.458063 18468.892912 18401.962468 18382.396059 18303.206264 18249.413657 18284.748429 18038.176804 18166.996285 17984.801582 17889.544870 17807.869536 17741.138129 17575.403764 17689.863873 17309.173420 18086.785767 16804.820266 17427.193973 17186.453810 18781.637597 18778.396141 19470.030167 20102.284909 18227.906795 18332.282968 8137.040172 2899.466963 28929.425343 21894.206006 16216.925568 19267.857722 19117.528507 18238.231245 15982.147420 18595.966372 17964.748995 19998.636669 17434.288132 17993.008993 19454.189425 20528.221862 20362.409339 21255.147908 20396.571181 21857.414546 22631.770926 22292.239548 23719.898822 23747.021978 23168.679964 24294.709471 24067.036619 23888.574527 24500.887072 24473.411315 25522.574717 26282.407926 24479.243058 24415.538575 27548.456479 28671.178263 26420.068255 24258.766431 24530.730313 25884.315964 26750.073330 26955.069901 27107.919312 27327.257490 27267.407727 26971.722734 26803.872600 26903.602447 27183.233376 27521.283114 27837.969086 28144.418314 28426.248358 28599.393036 28660.195596 28603.350081 28458.273462 28273.381211 28028.621665 27771.516228 27531.208961 27242.923695 26877.410455 26441.939788 25972.179342 25557.611901 25294.823465 25242.017132 25397.366977 25692.763048 26017.647925 26258.501526 26337.101293 26233.303371 25981.832353 25648.725265 25301.704309 24987.923671 24725.865070 24509.718482 24320.330770 24136.706908 23943.960655 23736.264159 23515.571729 23288.085682 23060.545388 22837.735889 22621.659235 22412.052914 22207.579928 22007.028682 21810.094833 21617.607605 21431.293915 21253.291855 21085.634479 20929.862727 20786.838900 20656.755201 20539.283759 20433.797002 20339.592775 20256.076510 20182.874177 20119.868693 20067.166448 20025.009227 19993.651184 19973.222009 19963.597292 19964.295884 19974.421680 19992.663143 20017.357134 20046.614086 20078.489678 20111.176180 20143.177617 20173.430654 20201.340278 20226.716441 20249.621786 20270.165562 20288.297246 20303.658543 20315.540743 20322.967269 20324.885037 20320.413548 20309.078753 20290.958626 20266.691105 20237.336802 20204.135603 20168.232342 20130.459921 20091.253552 20050.731322 20008.926614 19966.108886 19923.096871 19881.464885 19843.550190 19812.228608 19790.483435 19780.790539 19784.545504 19801.558890 19829.685043 19865.121392 19902.370640 19934.982695 19956.810782 19961.084139 19943.670311 19901.770372 19833.300715 19743.550434 19633.874340 19512.841854 19390.757795 19268.067280 19160.159943 19060.976270 18974.519184 18900.359624 18829.317088 18769.012557 18707.932827 18659.138307 18604.348435 18556.151531 18484.492126 18405.717745 18271.647173 18147.440435 17979.983897 17818.320236 17728.955970 17608.165063 17580.652344 17536.077743 17532.584816 17455.127817 17387.350102 17363.351083 17192.784110 17157.358037 16974.002878 16968.413148 16677.090948 16696.859961 16442.200844 16540.637037 16175.222789 16301.108626 17016.235521 16092.526117 16209.263041 17587.345785 14898.656692 17755.094630 16602.735636 14756.113806 15653.757218 6705.203591 2255.804236 27237.642913 19680.073130 14108.852080 17831.978322 19288.670205 17933.840862 19073.622065 17128.778165 19396.751843 18088.069074 18805.617178 18450.100406 18992.165441 19356.598208 19389.900143 19672.254065 20801.504174 21718.018350 21556.060029 22254.983882 23345.903917 22205.356954 24060.772123 23889.226014 23175.765139 24586.007640 24188.323