<VTKFile type="PolyData">
<PolyData>
<Piece NumberOfPoints="35161" NumberOfVerts="35161" NumberOfLines="0" NumberOfStrips="0" NumberOfPolys="0">
<PointData>
<DataArray type="Float64" Name="Pressure" format="ascii">
 33013.779242 30351.192999 27373.717694 25834.387102 25345.443666 25023.667243 24957.258678 25005.941812 25173.724768 25395.632789 25944.921920 26025.999989 25886.835228 25952.711127 25856.625382 26144.339787 26185.224982 26008.522051 26402.257810 26818.221249 27143.456306 27375.169907 27561.070778 27241.401530 27142.992162 27249.439643 27633.987699 27607.444159 27582.257354 27781.283259 27963.724108 28058.940175 27893.443700 28402.538164 28799.978695 29150.422290 29319.934856 29165.065559 29532.313990 29575.204936 29760.599132 29984.829525 30107.199868 30205.131211 30724.613560 31283.100561 30863.572331 31130.620811 31358.261986 31339.487539 32103.468533 32542.147625 32499.405826 32526.676807 31715.810471 31458.729408 31431.992920 31448.759197 31627.860145 31758.213137 31922.076372 32011.630782 32075.962062 32164.250332 32173.085085 32262.950359 32311.901726 32379.428568 32478.402729 32558.041764 32656.728508 32739.051595 32809.893520 32881.712613 32944.160628 33005.801661 33056.855293 33099.167865 33138.611148 33178.186649 33223.376606 33270.523729 33318.420077 33364.494051 33408.771016 33452.837958 33497.037762 33542.606923 33588.809385 33636.000678 33683.272981 33729.877357 33774.830746 33817.143315 33856.131519 33890.858991 33920.175163 33943.941174 33961.557553 33972.551075 33977.368921 33976.896044 33972.187361 33965.094558 33956.393002 33945.681949 33931.913647 33912.883360 33887.734137 33857.928971 33826.266624 33794.743058 33763.719198 33732.533182 33700.064723 33664.986189 33626.068999 33583.568413 33538.552847 33491.071480 33440.014043 33384.651441 33325.745636 33265.274893 33205.709877 33149.825523 33099.533132 33054.450977 33011.801744 32967.741963 32919.069332 32864.255192 32803.306841 32737.560218 32669.449095 32602.023515 32537.588924 32476.638659 32417.819620 32358.701977 32296.604836 32229.195751 32154.803264 32072.127550 31980.440193 31880.841981 31776.083422 31669.731993 31565.301204 31465.354708 31370.848299 31281.063209 31194.230204 31108.356663 31021.645770 30932.048966 30836.694345 30733.401720 30621.818346 30502.716218 30377.210776 30246.679498 30113.188329 29979.953106 29851.067021 29730.266573 29619.723184 29519.998518 29431.205496 29354.130452 29289.524039 29235.459244 29186.560668 29136.857274 29081.856843 29019.040398 28947.755878 28868.482250 28782.083167 28689.780983 28593.193091 28493.878242 28392.938474 28290.990153 28188.282521 28084.829724 27980.529524 27875.258070 27768.936697 27661.571135 27553.267124 27444.228422 27334.744144 27225.170601 27115.911657 27007.400757 26900.087427 26794.423994 26690.840708 26589.703630 26491.263189 26395.605356 26302.617499 26211.980833 26123.196290 26035.643532 25948.664990 25861.660952 25774.180560 25685.994547 25597.137513 25507.912292 25418.854034 25330.659559 25244.095643 25159.902519 25078.708231 25000.966090 24926.922165 24856.613527 24789.892569 24726.469544 24665.964066 24607.957165 24552.037119 24497.834681 24445.045813 24393.442112 24342.870753 24293.246686 24244.540024 24196.761508 24149.948266 24104.151439 24059.426520 24015.826636 23973.398614 23932.181323 23892.205663 23853.495671 23816.070082 23779.943816 23745.129085 23711.636045 23679.473028 23648.646497 23619.160864 23591.018304 23564.218660 23538.759454 23514.635988 23491.841472 23470.367107 23450.202044 23431.333196 23413.744893 23397.418421 23382.331541 23368.458067 23355.767643 23344.225806 23333.794417 23324.432500 23316.097474 23308.746733 23302.339452 23296.838510 23292.212347 23288.436603 23285.495369 23283.381908 23282.098720 23281.656870 23282.074535 23283.374758 23285.582485 23288.720944 23292.807562 23297.849584 23303.839675 23310.751778 23318.537563 23327.123788 23336.410897 23346.273129 23356.560336 23367.101607 23377.710662 23388.192837 23398.353332 23408.006237 23416.983775 23425.145104 23432.384010 23438.634881 23443.876435 23448.132831 23451.471981 23454.001097 23455.859709 23457.210601 23458.229270 23459.092642 23459.967829 23461.001740 23462.312258 23463.981634 23466.052524 23468.526952 23471.368231 23474.505652 23477.841569 23481.260296 23484.638127 23487.853663 23490.797655 23493.381551 23495.544081 23497.255347 23498.518078 23499.365988 23499.859394 23500.078513 23500.115068 23500.062981 23500.009011 23500.024145 23500.156478 23500.426104 23500.822307 23501.303130 23501.797154 23502.207189 23502.415481 23502.290031 23501.691642 23500.481352 23498.527946 23495.715227 23491.948691 23487.161216 23481.317314 23474.415562 23466.488904 23457.602734 23447.850891 23437.349973 23426.232526 23414.639778 23402.714471 23390.594211 23378.405496 23366.258413 23354.241945 23342.419910 23330.827820 23319.471162 23308.325776 23297.340846 23286.444642 23275.552494 23264.575806 23253.430499 23242.043264 23230.354594 23218.318561 23205.900479 23193.074477 23179.823270 23166.141842 23152.045460 23137.580769 23122.837298 23107.955905 23093.130945 23078.604098 23064.649553 23051.552021 23039.580480 23028.961202 23019.853667 23012.332523 23006.378126 23001.877500 22998.636640 22996.403816 22994.901690 22993.863980 22993.070597 22992.374508 22991.714731 22991.112693 22990.653281 22990.455552 22990.640186 22991.300372 22992.480252 22994.161785 22996.258478 22998.614348 23001.008260 23003.166159 23004.784302 23005.564075 23005.254080 23003.689539 23000.817567 22996.698956 22991.486032 22985.384035 22978.610715 22971.366974 22963.825208 22956.131854 22948.412534 22940.772006 22933.281012 22925.962308 22918.779773 22911.646757 22904.447169 22897.062809 22889.391336 22881.344100 22872.831839 22863.738784 22853.921181 22843.203640 22831.417837 22818.408173 22804.063699 22788.301077 22771.062533 22752.309277 22732.006302 22710.158704 22686.776995 22661.929432 22635.671898 22608.100577 22579.279779 22549.300044 22518.245088 22486.216258 22453.350446 22419.765763 22385.641735 22351.094883 22316.319683 22281.428430 22246.609261 22211.975435 22177.689291 22143.876470 22110.678451 22078.259677 22046.746205 22016.336129 21987.079855 21959.156837 21932.455737 21907.064883 21882.711307 21859.315197 21836.498033 21814.013152 21791.438912 21768.483341 21744.826797 21720.467273 21695.334021 21670.291630 21646.244187 21625.873068 21614.017048 21617.183740 21660.262385 21756.719301 21948.466082 22189.959650 22413.922964 22327.955659 22125.674062 21760.180200 21658.575768 21891.531867 22366.207308 22978.511841 23062.237217 22650.306190 22184.270808 21572.395347 21525.938399 22028.130078 22603.939888 23132.542085 23430.030261 23821.765117 24048.082754 23658.776651 22581.905504 20694.283031 18006.146214 14760.438470 11929.414729 10343.996248 30318.600999 26181.189969 21652.121992 20102.500168 20052.420492 19774.861303 20406.629947 19364.725726 19523.500640 19668.780702 21107.160204 20944.967413 20914.327423 21866.450045 20690.420140 21216.274437 21288.427337 19849.356430 22121.757237 22626.552510 23126.069470 22622.769495 24138.364256 22582.322315 22072.433237 21935.747279 23297.013970 23783.002575 23894.722231 25298.512170 23728.657676 24901.421906 23642.839243 25199.423496 25529.324396 25225.107790 26649.780581 24353.562843 25594.534272 25300.526277 25043.248076 25978.950515 26305.092058 26593.570093 26081.227738 29576.392581 26504.121396 27894.727473 30281.208075 27679.708489 28027.088406 30615.969506 28468.602049 31838.420443 28731.217259 29360.137328 29715.694104 29453.411261 30165.425271 29943.261759 30026.323346 30106.158625 29608.376349 30155.875449 29622.580672 30134.071603 30209.845783 30368.631866 30755.766423 30866.942442 31134.356193 31300.888960 31338.003895 31439.656155 31459.214902 31556.370073 31639.746797 31689.741005 31733.806514 31741.472969 31784.621195 31837.715071 31914.513168 31997.825169 32071.925777 32147.969759 32213.439406 32286.391498 32358.514736 32439.133801 32526.442334 32620.061852 32722.970742 32831.104400 32945.243018 33060.041868 33169.920617 33274.614618 33371.910661 33457.108800 33522.633695 33570.696646 33605.400227 33639.813633 33679.909930 33721.542682 33763.590517 33802.564813 33840.418938 33873.397069 33898.640722 33918.584999 33934.095645 33946.691227 33957.596707 33975.972525 34010.465013 34054.687923 34107.306107 34163.364655 34210.712611 34231.077185 34213.214886 34166.354269 34108.077435 34045.876523 33994.498374 33965.829723 33964.228677 33980.563291 33999.316333 34013.153614 34024.116556 34030.247759 34024.516718 34005.100201 33981.128326 33965.710563 33965.118360 33978.017196 34000.017844 34029.231401 34067.637060 34114.663714 34154.545224 34170.163637 34151.380923 34096.418133 34013.177401 33916.754343 33823.581140 33744.090646 33680.897106 33633.440793 33604.012334 33597.919022 33609.136285 33616.666597 33606.632297 33574.234644 33518.236685 33436.476872 33324.861864 33181.109676 33011.755053 32832.629737 32660.297089 32502.624732 32358.201850 32228.249575 32128.981572 32083.493662 32090.866071 32130.264131 32180.088242 32221.368792 32242.120663 32238.972130 32211.964583 32161.952934 32093.277215 32012.925216 31927.309525 31841.095211 31757.148476 31676.721415 31599.777796 31525.393283 31452.163085 31378.552481 31303.154115 31224.831443 31142.760135 31056.398393 30965.432407 30869.722728 30769.300265 30664.474991 30556.018956 30445.294727 30334.254910 30225.295891 30120.955048 30023.503368 29934.521547 29854.564967 29782.993222 29717.998319 29656.822289 29596.134753 29532.518470 29462.989038 29385.457641 29299.030293 29204.090842 29102.172654 28995.658032 28887.374574 28780.172378 28676.559014 28578.443087 28487.005835 28402.691916 28325.296507 28254.116104 28188.128025 28126.168167 28067.083751 28009.848074 27953.632072 27897.834915 27842.081504 27786.196344 27730.164140 27674.086348 27618.139993 27562.543035 27507.528167 27453.324691 27400.148489 27348.199344 27297.662458 27248.710887 27201.506880 27156.200998 27112.928728 27071.805029 27032.917728 26996.320939 26962.029674 26930.016635 26900.211825 26872.505283 26846.752792 26822.784157 26800.413348 26779.449693 26759.709241 26741.025487 26723.258732 26706.303550 26690.093972 26674.606227 26659.859022 26645.911492 26632.859064 26620.827542 26609.965750 26600.437076 26592.410224 26586.049473 26581.504678 26578.901256 26578.330411 26579.839852 26583.425374 26589.023719 26596.507234 26605.680932 26616.282569 26627.986365 26640.410811 26653.130846 26665.694328 26677.642336 26688.532378 26697.963168 26705.599232 26711.193389 26714.605100 26715.812819 26714.918892 26712.146085 26707.825531 26702.376645 26696.280267 26690.046927 26684.182567 26679.154297 26675.358790 26673.095707 26672.548131 26673.771472 26676.691607 26681.112357 26686.731655 26693.165178 26699.975622 26706.705436 26712.910594 26718.192888 26722.228375 26724.789850 26725.761656 26725.145647 26723.057823 26719.715770 26715.417876 26710.515923 26705.383330 26700.381799 26695.829320 26691.972483 26688.965619 26686.858605 26685.594198 26685.014687 26684.876569 26684.871193 26684.648781 26683.843313 26682.096093 26679.076592 26674.499902 26668.140829 26659.844983 26649.537176 26637.227076 26623.011552 26607.072731 26589.670759 26571.130660 26551.823570 26532.143734 26512.483659 26493.210397 26474.645726 26457.052146 26440.625088 26425.490270 26411.704051 26399.254525 26388.062058 26377.979691 26368.795666 26360.241359 26352.007452 26343.768976 26335.216532 26326.087636 26316.190370 26305.412438 26293.712678 26281.098127 26267.595747 26253.231582 26238.029355 26222.034866 26205.363358 26188.257274 26171.135045 26154.610646 26139.469477 26126.597149 26116.870400 26111.029661 26109.557523 26112.585632 26119.845859 26130.672873 26144.057608 26158.746102 26173.375165 26186.633358 26197.430771 26205.054294 26209.279437 26210.409712 26209.224560 26206.836100 26204.479670 26203.283249 26204.068346 26207.224614 26212.675115 26219.920523 26228.129403 26236.241591 26243.067293 26247.389764 26248.092298 26244.321629 26235.670153 26222.321373 26205.092000 26185.317401 26164.593029 26144.438805 26126.005907 26109.925302 26096.340436 26085.079970 26075.855492 26068.391688 26062.407123 26057.537070 26053.231966 26048.797282 26043.529908 26036.914617 26028.755468 26019.116793 26008.161137 25995.869708 25981.980354 25965.938440 25947.239363 25925.494381 25900.721280 25873.142242 25843.099363 25810.918597 25776.686524 25740.657380 25702.861530 25663.799420 25623.660098 25582.974361 25541.793612 25500.310792 25458.566761 25416.610793 25374.980852 25333.714840 25293.812949 25255.048714 25218.526479 25183.727111 25151.623203 25121.640336 25094.339970 25069.337328 25046.589804 25026.327594 25007.854700 24992.313286 24978.013877 24966.870912 24955.704485 24947.110315 24936.608024 24927.329270 24914.459023 24901.081218 24882.963123 24862.727287 24837.712342 24809.888201 24779.571862 24747.355318 24719.281412 24688.102149 24677.988409 24650.391404 24692.988004 24665.050630 24849.548142 24897.702336 25454.308074 25572.683282 26565.365352 25857.099300 25987.173089 25007.537819 25005.867872 25278.478757 25601.874605 26576.970862 26748.501786 26457.713846 26535.234316 24877.214463 24953.147972 25852.938833 26705.789694 27393.375912 26728.047316 27123.810511 27773.564024 27451.132181 26819.329261 25167.858450 22925.224465 18167.530028 13480.107760 10394.029256 27743.107362 22472.815775 17191.557179 17248.332953 16716.381729 16608.534818 18874.086533 15619.182302 15626.274934 16008.048100 18021.486369 16653.366632 17379.745110 19228.580947 17612.732789 19584.060590 19742.672459 17692.278747 20483.868500 20016.871339 20147.276126 18732.736183 20855.151348 20320.856037 19088.407432 18709.299927 19747.750158 19706.609310 21472.800652 23367.627556 20547.274814 22766.819886 20894.923551 23009.598558 22521.593123 21677.014084 22828.541289 21294.697757 20827.950107 22413.876332 20569.073498 22072.555612 23280.322449 22646.512876 22942.238974 28575.358094 23816.818278 26413.905396 28185.985757 22970.237388 23168.159485 25217.330478 22789.361117 27745.207178 25922.214788 27717.217695 29773.688044 28951.134572 29571.174369 28179.062457 27631.906930 27044.867396 26201.391189 26799.506656 26238.051461 27131.844631 27753.737231 28189.819502 29083.624450 29316.054959 29705.913437 29869.495363 29726.832780 29641.841829 29465.359592 29484.910015 29575.430486 29650.564310 29721.026783 29730.036834 29801.346905 29917.532970 30098.218909 30310.312432 30513.794146 30716.773927 30896.807145 31080.584199 31256.067554 31433.350753 31603.712205 31763.734740 31913.253903 32041.124522 32139.678679 32191.930623 32198.409095 32182.468018 32190.229038 32295.960208 32497.985268 32750.088953 32997.500323 33196.228806 33324.194389 33352.608739 33259.805763 33082.642036 32950.280272 33034.052909 33280.293665 33547.761072 33739.059482 33803.999017 33716.676944 33514.060549 33376.674844 33523.756166 33893.996780 34332.662133 34746.725450 35032.242444 35087.350082 34918.233568 34727.084578 34679.963575 34691.976380 34693.915210 34700.282100 34703.866276 34646.323509 34507.142397 34389.167219 34442.816875 34621.230660 34795.554522 34894.397131 34935.639557 34957.872616 34955.477332 34903.936601 34831.713171 34828.679894 35007.135757 35334.456656 35707.702020 36040.168579 36255.106788 36316.368047 36247.126445 36100.385273 35916.690988 35715.920828 35511.298104 35349.102039 35319.715682 35460.273109 35690.881151 35931.927548 36142.625456 36307.308089 36416.204947 36450.609632 36384.135739 36204.663394 35939.131179 35642.211205 35347.962947 35043.354456 34709.968003 34401.997237 34247.625282 34292.175062 34480.720648 34747.203430 35024.901051 35254.701375 35411.188643 35492.299301 35497.540975 35434.902612 35326.356467 35194.594704 35057.692358 34929.042709 34817.112788 34725.733878 34654.860504 34601.664071 34561.726646 34530.129900 34502.259791 34474.209433 34442.769012 34405.173214 34358.747543 34300.560496 34227.467644 34136.785932 34027.276496 33900.087358 33759.356528 33612.182276 33467.830996 33336.307636 33226.629734 33145.193111 33094.575183 33072.953875 33074.217510 33088.782220 33105.012591 33111.075672 33096.829782 33055.309318 32983.572292 32882.802693 32757.708715 32615.415864 32464.138896 32311.924683 32165.662434 32030.456408 31909.352826 31803.401190 31711.962456 31633.160546 31564.381022 31502.740058 31445.468096 31390.180921 31335.034060 31278.771503 31220.693155 31160.570979 31098.539524 31034.981323 30970.424158 30905.455156 30840.654325 30776.557596 30713.645032 30652.343220 30593.033287 30536.057943 30481.723257 30430.293418 30381.979077 30336.921645 30295.176976 30256.702134 30221.348467 30188.863280 30158.901110 30131.044256 30104.830994 30079.788970 30055.470668 30031.487677 30007.540686 29983.442674 29959.133491 29934.684913 29910.296098 29886.280164 29863.043218 29841.057528 29820.830750 29802.873076 29787.664048 29775.620505 29767.066937 29762.209293 29761.113192 29763.687466 29769.674026 29778.645134 29790.009197 29803.026153 29816.833218 29830.481282 29842.981402 29853.359886 29860.719221 29864.300993 29863.545933 29858.145663 29848.080653 29833.639562 29815.416395 29794.283830 29771.343263 29747.854488 29725.150061 29704.541040 29687.221819 29674.181939 29666.132215 29663.451275 29666.156803 29673.903722 29686.009309 29701.503126 29719.197736 29737.774674 29755.879096 29772.216009 29785.641005 29795.238952 29800.385049 29800.783972 29796.484381 29787.867747 29775.612219 29760.633975 29744.010181 29726.889159 29710.394688 29695.532171 29683.104794 29673.647343 29667.384133 29664.215310 29663.732894 29665.264582 29667.939942 29670.770971 29672.737403 29672.867202 29670.304312 29664.358756 29654.537724 29640.559722 29622.356055 29600.064546 29574.019233 29544.737398 29512.902573 29479.340179 29444.982160 29410.818603 29377.837733 29346.959622 29318.972258 29294.479812 29273.871295 29257.313428 29244.765593 29236.009177 29230.680469 29228.297150 29228.273358 29229.925917 29232.481554 29235.098548 29236.913546 29237.115286 29235.033978 29230.223416 29222.508048 29211.973447 29198.895733 29183.628951 29166.490369 29147.692862 29127.364532 29105.668490 29082.997782 29060.184776 29038.645301 29020.384793 29007.827398 29003.479320 29009.488242 29027.194078 29056.771732 29097.043991 29145.501669 29198.524773 29251.766308 29300.645574 29340.897230 29369.123635 29383.292718 29383.108656 29370.169542 29347.834434 29320.763109 29294.170780 29272.927053 29260.696389 29259.324743 29268.611881 29286.494915 29309.535080 29333.532068 29354.087386 29367.038876 29368.799003 29356.703963 29329.455883 29287.597396 29233.841677 29172.963873 29111.126220 29054.659195 29008.678314 28976.006966 28956.818292 28949.147182 28949.946947 28956.254680 28965.787943 28977.009092 28988.481109 28998.486300 29004.888238 29005.683430 28999.876055 28987.796658 28971.073385 28951.453382 28929.984171 28905.978804 28877.918240 28843.568315 28802.268179 28754.213644 28701.354841 28645.700707 28588.488146 28530.877987 28472.029885 28413.283063 28353.888685 28296.408004 28240.063616 28186.795958 28134.710283 28084.575113 28035.598535 27988.547314 27945.562200 27906.518260 27875.330822 27849.199179 27832.805741 27820.987561 27818.930550 27819.832882 27829.018442 27838.843986 27854.459070 27869.665334 27888.345285 27906.989148 27925.627175 27943.701469 27955.347230 27964.950956 27961.240515 27955.176254 27930.787472 27906.759779 27859.934951 27820.486015 27755.962370 27712.382333 27644.278987 27618.895391 27569.794123 27581.632225 27569.306118 27605.841782 27645.470036 27645.864239 27764.635086 27745.036566 28093.076796 27849.366315 28834.306685 28087.474607 28450.037819 28013.934966 28070.855988 28359.278358 28366.299883 29141.764891 29032.169483 29167.715348 29445.878014 27598.856539 28224.225764 28728.037526 29439.505165 29904.552778 29360.445323 29710.701337 29835.598879 30682.190935 32226.924267 28338.917791 27051.750677 21357.876980 15155.837312 9757.096635 26636.209479 21113.847638 16630.845091 18486.373438 16688.319484 18470.835183 15659.631864 17414.955337 16871.135267 17290.015176 17838.251033 18514.016977 17140.609225 20476.656392 19899.565890 20711.369679 18767.639124 18778.730652 19096.577444 18987.094076 18757.475383 20560.136748 20552.084910 20162.872063 20146.992206 20891.286238 19860.443035 22193.647846 21062.395469 22009.735410 20285.651420 19043.849279 20555.082116 20053.618372 21981.713383 21617.562573 23091.140211 24126.347410 24379.794587 24899.560066 24382.887826 25526.630858 22683.435052 23727.408861 22543.424929 25733.301258 23435.273392 26745.646548 27169.226748 28230.335805 28447.104276 27549.767135 26903.919358 26098.139105 26042.259023 25751.708640 26276.474217 26556.500357 27290.900203 27922.046787 28398.491734 28743.524129 28835.421245 28891.243684 28877.822797 28891.125669 28939.858255 28976.701372 29058.268194 29156.409269 29328.281414 29553.694579 29803.909117 30062.728737 30296.391230 30523.378050 30736.122521 30946.924871 31155.172931 31351.810832 31539.230058 31704.071053 31846.076117 31957.357613 32027.714954 32057.818614 32050.232865 32018.971894 31988.040702 31990.143150 32078.997181 32274.358148 32583.544979 32965.157265 33347.480724 33653.179036 33794.415065 33734.348569 33503.380047 33206.558292 32972.136614 32927.041351 33100.852587 33457.363026 33868.875625 34191.715977 34279.099819 34078.120659 33697.622156 33358.060791 33279.784973 33506.883669 33947.858524 34423.532464 34802.578169 34976.575169 34902.745311 34674.397300 34491.531912 34552.937935 34851.376441 35229.587659 35504.546016 35599.200379 35494.963148 35209.499908 34821.964895 34468.103156 34315.006917 34431.801015 34767.057120 35158.213663 35458.123225 35603.166307 35611.636610 35514.273529 35316.905776 35054.904437 34840.466581 34806.408091 34988.859823 35335.932481 35763.446999 36212.166589 36615.977511 36890.109891 36985.769557 36924.495805 36755.605676 36507.593557 36197.308352 35879.732530 35653.986248 35605.170236 35731.889883 35965.718601 36224.240009 36456.165220 36632.991737 36739.767093 36774.793843 36735.886585 36615.024836 36412.492609 36156.642817 35885.445818 35617.330044 35354.471225 35121.208555 34980.358852 34979.868958 35102.358617 35283.618531 35485.539649 35693.538987 35876.759493 36000.115369 36055.386618 36048.104201 35983.424530 35874.448080 35738.198500 35588.541212 35437.517063 35295.005562 35168.020701 35060.288754 34972.289195 34901.776555 34844.637217 34795.932970 34750.950928 34705.959373 34658.437060 34606.972311 34550.978281 34490.037627 34423.214799 34348.895540 34265.163026 34170.553047 34065.007185 33950.664954 33832.089507 33715.762835 33608.967408 33518.361439 33448.682639 33401.802632 33376.235707 33367.171277 33366.957991 33366.205540 33355.342375 33326.184434 33273.213319 33194.330412 33090.949263 32967.450130 32830.183532 32686.318019 32542.790841 32405.479253 32278.659320 32164.785629 32064.559314 31977.208215 31900.893530 31833.159228 31771.352245 31712.968311 31655.896178 31598.550361 31539.905328 31479.456363 31417.132341 31353.186576 31288.089867 31222.433204 31156.842271 31091.914563 31028.184882 30966.112203 30906.080195 30848.404351 30793.339954 30741.087004 30691.790338 30645.535216 30602.340117 30562.149399 30524.828634 30490.165075 30457.874802 30427.617080 30399.015268 30371.682708 30345.251253 30319.399772 30293.879952 30268.537017 30243.323554 30218.305349 30193.658857 30169.660651 30146.669743 30125.104103 30105.412902 30088.046118 30073.423103 30061.901604 30053.748672 30049.114783 30048.012503 30050.301018 30055.677871 30063.679203 30073.689633 30084.962589 30096.651346 30107.850242 30117.644583 30125.166677 30129.654377 30130.507668 30127.338331 30120.007735 30108.648394 30093.666127 30075.721305 30055.689662 30034.605159 30013.589212 29993.771960 29976.212053 29961.821516 29951.301710 29945.095342 29943.357944 29945.950614 29952.454028 29962.202158 29974.332723 29987.850353 30001.697711 30014.829466 30026.284013 30035.248100 30041.110070 30043.498143 30042.301070 30037.669499 30029.997575 30019.885594 30008.085979 29995.436346 29982.784837 29970.914133 29960.471180 29951.909685 29945.451435 29941.070640 29938.502787 29937.276382 29936.762891 29936.237830 29934.944799 29932.154653 29927.213843 29919.578981 29908.837942 29894.720584 29877.103577 29856.013516 29831.630516 29804.291563 29774.490057 29742.866286 29710.183901 29677.289982 29645.060375 29614.336545 29585.863550 29560.239673 29537.885995 29519.039153 29503.764107 29491.978144 29483.474706 29477.937433 29474.940824 29473.942400 29474.278698 29475.180470 29475.818520 29475.380997 29473.168763 29468.683372 29461.678203 29452.151176 29440.276637 29426.298502 29410.427255 29392.790057 29373.470428 29352.643200 29330.771029 29308.795234 29288.240475 29271.167843 29259.951904 29256.911380 29263.871234 29281.758894 29310.330325 29348.086229 29392.390138 29439.756056 29486.249478 29527.944602 29561.392613 29584.067991 29594.753779 29593.808699 29583.237782 29566.490237 29547.954604 29532.198746 29523.104767 29523.105777 29532.734086 29550.601636 29573.787242 29598.481510 29620.646864 29636.524140 29642.908798 29637.305649 29618.120739 29584.999944 29539.275207 29484.235249 29424.985191 29367.605076 29317.863500 29279.762930 29254.614160 29241.022920 29235.769080 29235.306641 29236.936015 29239.416978 29242.345045 29245.505600 29247.743002 29247.303766 29242.406133 29232.201099 29217.701991 29200.721405 29183.324583 29165.800292 29146.893654 29123.423953 29093.392909 29055.002389 29010.220344 28960.577690 28909.001739 28856.661459 28802.749727 28748.255237 28690.460869 28633.343189 28574.445741 28519.060372 28463.064080 28410.696679 28357.116933 28306.383169 28257.341640 28212.743177 28175.606142 28143.720156 28123.304735 28105.667142 28100.916610 28095.372394 28102.440134 28104.048464 28117.300708 28121.124979 28135.502317 28140.704431 28154.563449 28161.363688 28171.341634 28176.203201 28175.296636 28173.474998 28156.892584 28146.237387 28111.198138 28093.188712 28036.890073 28015.933615 27944.276805 27933.700365 27861.529590 27882.027208 27827.553391 27884.837546 27850.324095 27907.392121 27878.874497 27876.165446 27826.451083 27730.075038 27577.702025 27631.115385 27325.298128 27800.560438 27900.355473 28049.318213 28079.409154 28220.943127 28814.531000 29032.489310 28974.222961 27860.499324 28444.688060 27931.592404 29113.250178 28535.011685 27854.559362 28786.933368 28820.115063 28072.023232 29302.578743 28827.760441 33073.334159 28269.289340 23174.735874 20598.772826 13613.312657 8955.807511 26249.027220 20397.747472 15532.412524 16038.448698 16690.698888 18428.152243 16174.153877 17473.911841 16231.568711 17069.608620 16780.357380 18583.325636 17740.866820 18569.123474 18013.560252 19229.151959 18912.660146 16681.533260 19283.127803 19567.773385 19468.183401 19248.127193 20644.643802 20330.481147 20935.769677 20650.858559 19346.462757 21419.624836 20973.555416 20932.413565 21018.289223 21305.340668 20775.761589 20451.661982 21793.845838 21224.534876 22527.691778 22918.590738 24090.969272 23504.035350 24292.490159 24973.946766 23574.444662 24565.223733 24027.536101 26598.304917 25374.823105 26478.144218 26405.016587 27135.262489 27088.666372 27038.325720 27247.615487 27059.375751 27077.845998 26883.855120 27023.086378 27018.056927 27262.875712 27482.394041 27774.056800 28091.171659 28348.472218 28685.399181 28996.455490 29286.649936 29518.666143 29662.386145 29824.367317 29965.300645 30113.919319 30235.133402 30324.915455 30420.400457 30516.250904 30640.821105 30768.554625 30899.754175 31025.207869 31135.450868 31237.379652 31316.378328 31373.724024 31402.571729 31402.246146 31383.211731 31363.573830 31368.083224 31428.462827 31554.006856 31739.310605 31959.407176 32204.831918 32476.471130 32766.942879 33031.362863 33199.517966 33216.049508 33107.031660 32984.083201 32965.870735 33063.986697 33201.853258 33341.831336 33513.188948 33707.408539 33827.795224 33769.376151 33568.988470 33415.134986 33433.848250 33579.229710 33752.825556 33923.645331 34093.711808 34220.545759 34223.349109 34113.739557 34025.215545 34048.458918 34151.034987 34261.701509 34347.634432 34417.010573 34463.991062 34444.455515 34347.134876 34247.149409 34216.022739 34262.676486 34369.339282 34501.402881 34598.105491 34642.231645 34678.674793 34728.539503 34736.225718 34668.251443 34605.658344 34647.166578 34787.605764 34949.022397 35089.749062 35224.703635 35367.910986 35497.863222 35587.701105 35641.946979 35674.508412 35665.174740 35579.538600 35436.561962 35309.673193 35256.658552 35273.660785 35327.824893 35401.473889 35488.818231 35575.324737 35633.453345 35645.171273 35610.848175 35536.019768 35424.812902 35288.162337 35138.043167 34970.070195 34779.454047 34600.184216 34493.740784 34491.248261 34564.069593 34655.467278 34733.281037 34801.605799 34863.520689 34905.898784 34920.635302 34905.615156 34861.281981 34792.673575 34706.314037 34608.966249 34507.558714 34408.489501 34317.086496 34237.087765 34170.319039 34116.619902 34073.936517 34038.603240 34005.952409 33971.087357 33929.470779 33877.442404 33812.833902 33735.283126 33646.072122 33547.711349 33443.418201 33336.571010 33230.357612 33127.726687 33031.453481 32944.119656 32867.851027 32803.892951 32752.247035 32711.488634 32678.880917 32650.707746 32622.589890 32589.826818 32547.902512 32493.040208 32422.724077 32336.114747 32234.237997 32119.853012 31996.979198 31870.235115 31744.185740 31622.808759 31509.110936 31404.934766 31310.949498 31226.789074 31151.289819 31082.774291 31019.336386 30959.096994 30900.402511 30841.950533 30782.843296 30722.579560 30661.002704 30598.226336 30534.558684 30470.435817 30406.361321 30342.855492 30280.419349 30219.512242 30160.539632 30103.847275 30049.718451 29998.371819 29949.958649 29904.559304 29862.179772 29822.749594 29786.122694 29752.082385 29720.351333 29690.606591 29662.499077 29635.676278 29609.806466 29584.602459 29559.842975 29535.389770 29511.199175 29487.327081 29463.926980 29441.241179 29419.585769 29399.330310 293