<VTKFile type="PolyData">
<PolyData>
<Piece NumberOfPoints="23236" NumberOfVerts="23236" NumberOfLines="0" NumberOfStrips="0" NumberOfPolys="0">
<PointData>
<DataArray type="Float64" Name="Pressure" format="ascii">
 35662.646456 33480.138149 31024.079571 29544.067954 28830.767309 28343.434355 28257.590982 28349.684695 28158.137250 28323.029392 29057.162381 29532.013000 29556.388732 29507.345851 28717.020492 28361.949324 28354.001442 28813.910797 29197.402212 29541.919919 30133.278731 30614.237565 31173.154283 30975.614117 30897.549419 30656.809125 30676.923848 31148.190917 31342.261553 31246.961971 30781.823248 30984.798309 31366.025521 31731.114298 31688.641316 31474.107941 31457.074964 31866.830512 32557.725321 32781.762530 33142.136128 32760.130458 32638.250510 32758.864608 32651.834834 32696.061149 32716.281078 32721.231743 32747.285297 32799.015351 32875.652661 32981.039367 33088.553207 33200.856027 33303.434136 33385.474806 33462.344039 33532.764369 33594.763222 33642.916329 33679.988833 33723.202507 33779.900962 33842.830164 33898.561872 33935.153544 33953.586035 33960.402805 33962.920634 33965.149046 33966.359935 33965.324702 33960.593623 33952.536458 33941.920332 33929.212247 33913.977823 33895.275772 33871.853402 33842.368805 33806.594031 33765.063470 33718.573887 33667.618761 33611.665472 33550.036659 33483.429264 33414.126950 33343.899853 33272.041436 33195.303217 33110.152783 33015.042485 32910.996278 32800.524309 32686.472297 32571.451130 32456.879695 32342.667748 32227.925860 32111.963671 31995.018351 31877.467395 31758.811157 31637.473053 31511.559607 31379.909030 31242.492427 31100.332199 30955.666683 30811.739919 30672.201065 30539.943177 30416.152891 30299.992687 30189.037949 30080.000373 29969.478181 29854.599698 29733.102603 29602.714617 29461.915963 29310.916319 29151.221870 28985.163330 28815.815221 28646.794778 28481.630006 28322.888171 28171.831789 28028.934793 27894.742061 27770.087868 27655.019555 27547.348600 27443.616460 27340.935810 27237.277724 27131.288922 27022.091502 26908.909856 26791.022345 26668.154513 26540.609936 26408.966959 26273.867758 26136.027576 25996.283273 25855.608222 25715.078670 25575.790065 25438.734092 25304.660828 25173.960408 25046.597765 24922.123315 24799.765532 24678.595601 24557.732966 24436.539443 24314.755170 24192.556318 24070.530517 23949.579050 23830.770151 23715.174568 23603.714387 23497.051752 23395.532973 23299.189425 23207.785227 23120.894717 23037.990719 22958.526786 22882.001841 22808.001929 22736.219061 22666.451129 22598.588638 22532.594173 22468.479895 22406.286982 22346.069131 22287.880967 22231.770911 22177.777390 22125.927046 22076.233758 22028.697859 21983.305346 21940.027247 21898.819769 21859.625539 21822.375947 21786.994605 21753.401774 21721.519427 21691.276494 21662.613729 21635.487683 21609.873313 21585.764920 21563.175276 21542.132980 21522.678228 21504.857371 21488.716685 21474.295866 21461.621786 21450.702994 21441.525410 21434.049582 21428.209725 21423.914682 21421.050779 21419.486409 21419.078070 21419.677444 21421.139033 21423.327781 21426.126128 21429.439926 21433.202721 21437.377994 21441.959094 21446.966737 21452.444139 21458.450018 21465.049907 21472.306377 21480.268916 21488.964317 21498.388446 21508.500218 21519.218503 21530.422418 21541.955206 21553.631547 21565.247774 21576.594157 21587.468152 21597.687377 21607.101052 21615.598798 21623.115934 21629.634796 21635.182013 21639.822131 21643.648327 21646.771315 21649.307656 21651.368771 21653.051792 21654.433187 21655.565691 21656.478737 21657.182127 21657.672356 21657.940700 21657.982021 21657.803162 21657.429871 21656.911312 21656.321452 21655.756878 21655.330940 21655.164440 21655.373506 21656.055632 21657.275216 21659.050159 21661.341207 21664.045581 21666.996132 21669.966709 21672.683678 21674.842773 21676.129698 21676.242371 21674.912418 21671.923605 21667.125292 21660.439604 21651.861828 21641.454331 21629.335001 21615.661824 21600.615553 21584.382638 21567.140527 21549.047200 21530.236294 21510.818395 21490.888132 21470.535648 21449.860053 21428.981891 21408.051573 21387.251404 21366.790089 21346.890212 21327.770795 21309.628039 21292.617634 21276.841339 21262.339292 21249.088232 21237.004846 21225.953391 21215.757186 21206.214214 21197.117372 21188.278964 21179.557692 21170.883960 21162.278023 21153.855070 21145.812726 21138.400228 21131.871871 21126.433165 21122.189477 21119.110137 21117.016817 21115.601504 21114.471510 21113.209295 21111.434717 21108.847453 21105.247523 21100.522908 21094.626378 21087.544571 21079.282512 21069.860968 21059.315217 21047.701483 21035.063308 21021.430589 21006.770727 20991.033044 20974.151676 20956.127079 20937.053978 20917.112229 20896.564766 20875.628362 20854.516066 20833.304071 20812.081878 20790.815848 20769.520659 20748.052610 20726.259563 20703.845161 20680.499979 20655.983699 20630.074405 20602.776308 20574.018590 20543.909501 20512.447591 20479.759044 20446.054177 20411.517576 20376.644285 20341.535738 20306.716273 20272.168379 20238.218590 20204.846478 20172.027448 20139.809263 20107.449914 20075.530152 20042.786921 20010.347955 19977.278741 19945.855265 19914.542180 19888.364908 19869.278855 19865.455880 19885.976838 19938.661374 20000.579868 20130.108335 20246.227827 20541.738813 20907.225389 20986.730783 20592.237128 20458.099927 20485.114582 20372.363057 20090.707164 20137.012462 20408.392367 20613.449201 20860.837483 21095.342236 20214.936624 17548.489595 14298.484583 11361.087692 9674.947087 32978.069493 29265.999456 24750.644094 22646.494839 21955.073817 21062.370124 21698.577617 22507.734735 21634.043880 21602.634438 22909.669346 23443.500510 22144.668725 23673.669063 21445.574296 21961.429422 22336.830107 23833.142694 24313.392016 23444.351924 24862.247814 24513.434825 26226.015108 23782.857398 24338.131070 24812.633616 23878.916634 25869.036216 25942.421989 28066.856698 25599.127204 26918.319702 27196.637485 27289.300253 27597.205278 26437.822987 26853.072135 26411.223390 28890.840601 28182.816503 31450.649691 31087.321341 30798.526001 31805.713005 30042.940864 30405.372753 30056.294922 30152.012370 30285.427635 30600.889174 30879.495245 31218.103356 31436.522906 31582.645378 31707.797872 31685.790568 31696.714683 31745.635792 31865.589242 31996.270784 32046.799846 32063.396635 32127.493784 32267.800760 32482.515694 32686.621600 32843.588805 32944.169701 33004.862394 33060.450329 33113.064786 33169.535697 33220.259908 33265.603056 33307.347593 33346.960603 33387.600713 33429.824318 33476.111650 33525.167506 33580.010292 33639.712891 33704.208892 33770.101797 33828.260614 33864.711471 33881.731810 33895.161508 33919.695320 33958.019195 34005.366850 34059.578479 34117.012805 34157.641580 34175.119250 34167.049833 34136.136163 34086.436630 34029.349374 33984.833082 33960.715900 33948.603248 33946.486505 33952.588403 33962.522551 33963.956328 33943.535944 33896.150284 33824.030863 33726.206075 33601.167801 33453.661396 33297.830318 33153.357068 33035.523230 32950.461915 32896.044811 32866.715369 32859.177748 32873.115623 32903.743276 32931.933110 32943.339487 32929.608407 32884.344757 32803.538777 32688.743883 32548.967225 32397.033267 32241.558569 32083.632997 31922.334264 31764.534831 31627.513017 31523.281757 31444.072235 31379.754538 31323.486029 31270.499516 31219.197646 31169.682075 31119.898879 31066.372481 31007.525435 30942.953273 30871.630145 30791.767202 30701.300690 30598.512315 30482.697963 30354.741268 30217.398107 30075.134868 29933.488487 29798.063801 29673.409142 29562.033107 29463.820694 29376.057675 29294.054706 29212.137684 29124.752436 29027.498637 28917.876043 28795.609452 28662.536853 28522.114994 28378.673245 28236.613187 28099.725893 27970.737137 27851.120717 27741.156202 27640.164429 27546.833707 27459.554551 27376.703017 27296.843994 27218.847492 27141.925634 27065.610019 26989.692514 26914.150984 26839.078860 26764.629984 26690.983227 26618.326315 26546.853034 26476.766577 26408.282554 26341.626657 26277.027369 26214.707334 26154.874168 26097.711031 26043.368750 25991.961008 25943.563384 25898.216122 25855.929755 25816.692197 25780.475753 25747.242614 25716.947817 25689.539223 25664.954677 25643.117065 25623.928442 25607.264597 25592.971462 25580.864513 25570.731977 25562.342076 25555.454033 25549.831970 25545.260425 25541.559866 25538.600501 25536.312731 25534.692830 25533.802851 25533.764234 25534.745149 25536.942175 25540.557464 25545.773016 25552.724115 25561.474248 25571.993978 25584.146195 25597.679857 25612.233827 25627.351532 25642.506175 25657.135003 25670.679944 25682.630899 25692.567295 25700.193335 25705.362811 25708.090313 25708.547196 25707.042374 25703.989850 25699.866465 25695.164540 25690.344642 25685.793711 25681.793041 25678.499427 25675.941178 25674.028915 25672.579342 25671.348744 25670.071929 25668.501935 25666.445941 25663.793514 25660.534352 25656.763913 25652.676529 25648.546677 25644.700003 25641.476360 25639.187779 25638.074831 25638.265377 25639.740139 25642.309665 25645.606911 25649.098592 25652.116599 25653.908173 25653.700641 25650.773732 25644.530602 25634.558138 25620.668195 25602.914077 25581.580264 25557.147375 25530.237871 25501.550369 25471.791372 25441.612814 25411.562366 25382.051525 25353.344365 25325.567755 25298.741710 25272.826184 25247.777994 25223.608951 25200.434278 25178.500090 25158.180836 25139.942636 25124.275694 25111.606850 25102.209635 25096.131337 25093.153765 25092.796454 25094.360595 25097.002893 25099.823147 25101.951279 25102.625408 25101.260568 25097.512754 25091.339652 25083.053499 25073.347975 25063.277171 25054.164994 25047.436421 25044.386673 25045.919520 25052.315266 25063.078244 25076.923584 25091.920330 25105.787556 25116.292952 25121.654967 25120.870694 25113.830179 25101.246522 25084.345835 25064.519391 25042.979586 25020.597623 24997.921130 24975.256486 24952.842661 24930.722284 24908.807745 24886.541319 24863.226494 24838.024764 24810.612293 24781.389103 24751.434181 24722.452585 24695.625143 24671.939737 24651.050463 24632.672994 24615.721916 24599.928295 24584.258846 24568.199777 24550.130202 24528.685972 24502.788306 24471.748679 24436.793926 24398.305127 24358.278497 24316.568260 24274.373039 24231.649776 24189.628973 24149.788413 24112.638453 24079.733818 24050.028164 24023.548406 24000.049315 23977.173808 23957.484764 23933.516398 23913.580568 23882.680448 23859.702101 23824.115927 23803.771060 23769.409094 23762.737183 23733.395593 23741.366087 23722.191633 23784.626850 23779.065338 24046.315427 23913.316760 24424.444144 24201.881445 24895.493423 25807.377168 26608.486327 24586.357529 24645.772591 24925.845079 25131.664199 24026.262120 24886.279169 25537.092220 25283.246958 25581.179945 26267.771578 26086.928718 21711.172185 16968.373296 12424.682401 9492.129425 30126.942072 24247.991049 16833.906959 16667.261837 16811.517581 15597.965606 16692.143751 18263.696833 17215.148447 17631.746850 19169.939151 19654.348911 17624.496758 20709.927823 18171.474701 18270.268456 18324.975622 20026.721698 20152.210421 17920.436839 19601.263587 19133.246239 21741.390676 18627.656719 19317.776448 23393.122401 20322.617217 21849.148969 22895.162748 24631.345050 21417.549800 23022.658535 23762.874117 22497.816013 23345.552765 23550.786200 24313.485369 26293.499267 27629.579707 26005.213338 29559.623266 30094.577088 29032.951432 29660.720457 26736.454877 26901.872670 26814.686622 27143.459771 27908.791991 28875.664090 29688.490645 30269.143898 30408.675926 30340.643437 30180.361112 29713.555928 29245.667288 28995.459263 29075.123895 29284.051865 29313.546165 29166.755312 29066.054895 29166.177200 29511.483333 29934.637931 30302.493550 30566.061249 30735.712173 30881.928827 31022.616181 31174.453478 31332.831011 31496.500478 31672.487614 31859.443821 32052.160814 32233.584886 32392.569039 32515.342498 32584.277137 32583.367715 32533.200840 32490.994519 32576.253348 32806.328447 33096.188104 33361.658361 33568.845428 33684.964895 33696.492292 33661.968200 33757.633893 34109.254156 34564.395005 34945.520719 35164.747880 35167.248940 34959.632330 34674.106116 34566.926287 34730.231488 35020.988954 35334.611610 35648.090356 35921.372915 36081.719146 36108.333694 36083.119586 36118.105376 36169.801729 36138.440293 35973.802914 35704.200144 35407.137436 35132.204440 34876.995992 34643.423135 34465.959620 34431.038032 34597.002204 34893.912293 35243.817219 35599.317464 35917.907477 36153.959172 36280.632253 36302.075618 36248.827969 36151.028368 36005.310154 35787.933259 35511.077479 35258.752874 35115.122810 35059.030969 35044.202635 35042.383248 35031.916553 35003.449664 34967.422019 34934.076290 34903.448914 34877.495240 34863.342019 34862.798054 34871.370858 34879.622991 34874.709135 34842.838835 34772.486511 34657.697269 34500.544344 34311.832127 34109.563220 33915.472856 33750.488822 33630.123789 33561.076245 33540.058245 33554.818212 33586.849987 33615.179604 33620.411467 33588.109665 33510.939784 33389.269260 33230.161427 33045.209102 32847.886406 32651.050571 32465.061446 32296.745311 32149.208923 32022.326996 31913.628937 31819.289756 31735.017213 31656.751295 31581.113610 31505.613250 31428.650312 31349.382439 31267.526274 31183.153311 31096.523567 31007.982447 30917.921819 30826.785612 30735.098239 30643.487365 30552.678867 30463.478857 30376.745578 30293.346813 30214.107958 30139.758722 30070.886238 30007.900418 29951.014740 29900.242926 29855.409721 29816.172533 29782.050143 29752.454906 29726.725647 29704.159517 29684.042123 29665.676036 29648.408201 29631.656735 29614.937138 29597.887304 29580.289883 29562.089951 29543.405529 29524.528527 29505.914091 29488.157160 29471.956054 29458.064174 29447.232054 29440.143156 29437.347713 29439.199636 29445.801940 29456.966244 29472.191646 29490.667444 29511.302856 29532.784787 29553.662045 29572.451256 29587.756440 29598.391322 29603.491501 29602.603102 29595.735972 29583.372705 29566.429751 29546.172663 29524.093501 29501.763485 29480.677430 29462.107770 29446.984928 29435.817585 29428.661503 29425.139659 29424.510220 29425.773223 29427.802373 29429.485653 29429.858012 29428.211004 29424.167845 29417.717172 29409.203974 29399.281003 29388.827584 29378.844983 29370.338343 29364.195013 29361.068683 29361.278311 29364.730846 29370.876924 29378.708307 29386.804208 29393.429857 29396.684553 29394.688403 29385.788539 29368.758599 29342.962212 29308.453429 29265.995224 29216.989838 29163.329542 29107.189786 29050.795798 28996.196559 28945.076630 28898.628021 28857.493684 28821.783901 28791.158572 28764.962748 28742.398913 28722.716206 28705.392972 28690.285175 28677.711190 28668.446362 28663.611513 28664.458498 28672.080885 28687.102213 28709.409245 28737.997722 28770.976454 28805.739823 28839.276870 28868.549166 28890.862563 28904.167096 28907.259943 28899.903550 28882.887484 28858.069342 28828.372105 28797.701759 28770.696483 28752.251147 28746.825223 28757.586230 28785.604454 28829.233634 28883.964198 28942.795249 28997.213608 29038.633550 29059.974506 29057.179075 29029.935773 28981.840318 28919.242519 28849.808209 28780.591265 28716.675254 28660.785038 28613.345927 28573.887351 28541.034326 28513.859254 28490.021300 28467.160631 28441.116484 28408.728908 28368.654173 28322.166821 28275.689847 28234.054183 28205.146893 28188.659701 28185.211393 28188.705036 28196.167628 28203.365576 28208.796052 28209.841629 28202.095307 28182.471398 28144.540260 28092.822527 28026.227151 27956.469532 27885.201473 27817.858856 27754.673818 27694.394102 27642.381843 27597.087421 27567.699659 27550.063590 27543.800358 27548.733452 27549.494642 27563.832816 27557.314542 27570.600407 27539.973921 27540.943953 27480.379014 27476.182573 27416.609280 27437.472824 27402.438100 27455.505202 27442.763738 27475.771553 27477.278221 27497.938300 27450.623732 27699.165685 27262.680320 27971.988609 27287.163092 27807.507047 28248.144384 29960.300709 27010.340519 27856.222048 28192.406810 28881.285848 27822.821814 28871.791158 29625.290816 28629.055968 28720.511717 28930.653786 29228.108700 25597.425480 20179.117446 13671.303498 8902.385862 28670.252386 21331.637121 13817.527389 16964.121383 16614.802085 17423.621511 17471.103764 18291.947626 18936.532332 19423.558510 18317.060342 18900.314002 19225.293619 19832.823331 19462.651726 18961.883700 19243.275320 19664.648445 18989.634956 19169.022849 21276.372589 19473.268198 23041.851099 20685.555077 23348.569252 23055.145495 23436.128118 22690.512302 22417.865437 23475.006729 22777.113644 23576.879511 23839.264753 27908.730711 28698.528189 27473.425968 28182.853593 26529.760931 26130.729291 25661.253659 26005.345552 26439.347389 27252.693796 28318.544180 29133.411032 29470.444506 29490.011573 29355.854251 29086.569219 28773.385189 28556.901266 28538.407274 28539.719131 28562.381424 28636.714113 28823.843677 29117.538089 29378.070887 29608.458476 29782.098463 29970.972260 30190.928464 30417.916884 30658.985320 30879.434458 31109.489733 31350.846277 31605.833477 31881.001153 32142.125961 32372.357073 32532.602018 32598.760304 32565.984498 32445.422409 32292.876065 32175.508683 32181.841373 32373.279394 32751.017345 33243.848576 33723.621775 34052.474433 34127.033823 33959.795664 33702.658073 33565.777685 33722.281302 34169.783981 34791.938925 35393.417247 35810.483283 35910.632064 35681.998063 35292.870613 35009.915681 35037.584398 35352.005756 35772.954173 36124.861896 36330.830230 36366.110770 36239.240409 36023.275732 35842.952414 35830.894680 36018.656314 36334.561271 36637.388192 36801.320796 36754.721431 36517.524184 36175.910411 35786.652392 35372.157134 34983.242558 34727.124750 34698.118095 34884.580832 35202.196421 35556.825102 35902.574416 36215.579799 36465.777465 36618.484289 36660.382533 36610.702680 36509.700889 36377.145011 36209.330576 36017.449325 35852.918340 35778.573032 35797.964524 35862.009560 35915.485242 35943.561752 35943.643425 35902.915026 35819.673544 35710.765258 35591.906791 35471.865889 35361.363298 35268.725014 35196.815640 35145.219203 35110.344506 35085.194466 35059.705835 35022.075354 34961.127820 34869.342751 34745.503654 34595.779090 34432.903637 34273.764198 34135.578639 34031.632266 33968.127157 33942.899720 33945.963635 33961.746877 33972.476471 33961.666328 33917.064404 33832.643785 33709.126168 33553.077059 33374.998501 33186.988306 33000.504686 32824.663670 32665.303410 32524.868969 32402.927439 32296.985988 32203.384985 32118.108516 32037.413418 31958.234358 31878.365089 31796.459802 31711.912676 31624.668281 31535.017512 31443.427560 31350.428538 31256.560941 31162.378852 31068.476992 30975.506577 30884.175526 30795.240924 30709.487045 30627.688531 30550.564059 30478.727888 30412.646584 30352.606691 30298.696842 30250.805367 30208.632388 30171.713909 30139.454693 30111.166584 30086.109308 30063.531404 30042.709552 30022.985089 30003.796768 29984.708887 29965.433785 29945.847529 29925.997495 29906.100598 29886.531158 29867.797900 29850.510241 29835.334829 29822.944162 29813.959943 29808.894605 29808.095111 29811.693573 29819.569515 29831.328481 29846.301109 29863.565698 29881.995470 29900.329374 29917.262447 29931.548765 29942.107463 29948.120509 29949.110597 29944.988748 29936.064218 29923.013668 29906.811651 29888.629620 29869.714900 29851.263786 29834.303735 29819.598326 29807.585668 29798.356506 29791.673264 29787.026158 29783.718097 29780.966881 29778.011617 29774.210479 29769.118857 29762.540167 29754.545540 29745.462499 29735.835968 29726.366975 29717.835349 29711.012560 29706.570514 29704.991899 29706.488191 29710.932595 29717.816605 29726.239574 29734.939780 29742.372117 29746.831486 29746.613019 29740.191823 29726.398277 29704.562106 29674.601082 29637.038226 29592.943549 29543.809774 29491.382944 29437.475542 29383.790382 29331.778501 29282.545631 29236.812381 29194.925584 29156.913633 29122.576907 29091.603751 29063.700965 29038.723953 29016.786010 28998.321460 28984.077280 28975.015978 28972.130798 28976.198231 28987.517628 29005.702736 29029.585683 29057.273949 29086.357733 29114.225358 29138.415397 29156.921344 29168.404456 29172.293261 29168.807804 29158.959681 29144.544628 29128.147529 29113.051814 29103.020988 29101.847676 29112.696033 29137.372199 29175.598086 29224.671096 29279.430313 29332.907690 29377.331055 29405.545945 29412.504489 29396.265382 29358.783315 29305.068491 29242.535378 29178.521939 29119.067560 29067.454593 29023.988476 28987.501226 28955.504170 28926.885298 28899.574099 28873.186882 28843.930673 28809.916707 28767.005634 28715.446973 28659.159271 28603.104998 28559.191967 28527.245709 28515.012253 28511.316859 28516.381449 28519.909942 28522.720294 28521.745368 28516.284359 28503.040452 28474.225161 28431.748288 28367.890402 28301.133193 28225.574723 28160.051394 28097.134257 28038.678247 27985.498943 27932.493061 27895.898831 27864.461343 27853.581793 27849.607255 27845.968771 27857.951655 27843.551674 27867.534690 27830.596255 27859.154491 27779.189874 27809.555443 27700.425176 27755.075228 27659.862273 27752.565759 27679.510099 27771.985014 27712.385730 27745.099937 27708.909854 27672.620431 27599.036430 27597.470381 27394.304286 27638.503653 27168.791144 27523.115594 26572.677368 28368.691523 26862.400353 28310.793190 27477.891841 27591.013755 28191.115734 27250.927323 27068.907576 27725.364467 27167.535210 28544.850566 29358.851018 24425.156832 24065.115604 13987.674759 8706.395211 28408.912478 21019.712179 15033.847946 16031.923543 16595.647210 16553.465029 17623.922163 17755.507348 19503.575149 18748.748041 18830.035582 20510.438368 19378.829359 19372.062695 18999.461554 19394.365739 19533.625157 19045.969988 18981.228576 19891.038644 20365.358844 19884.419544 21502.182399 21593.337064 23995.952361 21567.432439 23714.432321 22176.826899 23588.168749 22498.257343 23487.965798 23269.961695 25096.628566 24410.133206 29260.289990 27146.279766 27276.572657 26413.018438 27151.061927 26685.270702 27130.895040 27148.676036 27478.205322 27770.780351 28150.605471 28568.269368 28881.952147 28956.772247 29045.335685 29188.346298 29246.045803 29156.907639 28939.782286 28880.848370 28949.017251 29066.169850 29182.582517 29284.401525 29507.109305 29779.253452 30097.847989 30386.747814 30618.149650 30840.174021 31035.505840 31255.229406 31477.756105 31697.261396 31917.166565 32101.254425 32254.131609 32350.741634 32376.442331 32342.149092 32272.508609 32232.207095 32272.624957 32390.078284 32547.715116 32718.085191 32925.015979 33178.394142 33403.049971 33486.132219 33389.356541 33236.171228 33215.040387 33369.627884 33599.187188 33830.832372 34078.902080 34344.968951 34551.638740 34607.312882 34552.706606 34531.699853 34615.573587 34766.063678 34922.761887 35055.403129 35165.259164 35233.805105 35215.544544 35116.227551 35029.312098 35018.909451 35061.610792 35126.994733 35208.994238 35269.052633 35252.995332 35159.226156 35033.807333 34888.610260 34691.220853 34457.765368 34281.326703 34246.026390 34349.971561 34534.274396 34745.594940 34953.404753 35140.971072 35293.568877 35397.588155 35446.204499 35449.676870 35425.357489 35368.477910 35255.840432 35095.375557 34943.109259 34848.935924 34808.899974 34783.014050 34738.071871 34671.780574 34599.697464 34527.552563 34454.886756 34386.288931 34325.552543 34273.253206 34228.033380 34185.275766 34138.826980 34083.447161 34016.240427 33937.163893 33848.480119 33753.419160 33654.736413 33554.120102 33452.584885 33351.139524 33251.344623 33155.774770 33067.848402 32990.805920 32926.490045 32874.397565 32831.204481 32791.043916 32746.570528 32690.364234 32616.308373 32520.777789 32403.324808 32266.663318 32116.032675 31958.153243 31800.026398 31647.819356 31506.025933 31377.084786 31261.474179 31158.108174 31064.851199 30979.040982 30897.942418 30819.084609 30740.468814 30660.667507 30578.834142 30494.641552 30408.175212 30319.808204 30230.082583 30139.617849 30049.061536 29959.076967 29870.339672 29783.528407 29699.314158 29618.345084 29541.226128 29468.494654 29400.595082 29337.856067 29280.473336 29228.500322 29181.847491 29140.290126 29103.483420 29070.983278 29042.271052 29016.780600 28993.926317 28973.131106 28953.853492 28935.613162 28918.014201 28900.765132 28883.694706 28866.762216 28850.061097 28833.814651 28818.363066 28804.141330 28791.648343 28781.408221 28773.925684 28769.638205 28768.868361 28771.780386 28778.345190 28788.318004 28801.232199 28816.411732 28833.003043 28850.025289 28866.435616 28881.204197 28893.392167 28902.224797 28907.152343 28907.892130 28904.447393 28897.100889 28886.384051 28873.024983 28857.880686 28841.860299 28825.846796 28810.624476 28796.818795 28784.853733 28774.930061 28767.025848 28760.918400 28756.224913 28752.457502 28749.087173 28745.610627 28741.613607 28736.824614 28731.153266 28724.708355 28717.791914 28710.867444 28704.503030 28699.293237 28695.767141 28694.293052 28694.992687 28697.678096 28701.822972 28706.576007 28710.818048 28713.257905 28712.555159 28707.453595 28696.907192 28680.182432 28656.925511 28627.189602 28591.423728 28550.429485 28505.293839 28457.305767 28407.862821 28358.372261 28310.151642 28264.335854 28221.800770 28183.115999 28148.538579 28118.054303 28091.463767 28068.498220 28048.939362 28032.712180 28019.923652 28010.833033 28005.760092 28004.956373 28008.478399 28016.102335 28027.302390 28041.298156 28057.145125 28073.834242 28090.374715 28105.837334 28119.392469 28130.355545 28138.276586 28143.078396 28145.164390 28145.490959 28145.451660 28146.645966 28150.509469 28157.911543 28168.935312 28182.701404 28197.626867 28211.606937 28222.568718 28228.835378 28229.492923 28224.750803 28215.523162 28203.672551 28190.444392 28176.807415 28161.918374 28143.899457 28120.642605 28090.022422 28052.711912 28009.676213 27964.448137 27917.806732 27871.504354 27822.614786 27772.080093 27719.831935 27670.832622 27632.731009 27606.490192 27599.070300 27595.792113 27598.974755 27591.481587 27579.416932 27560.693160 27542.104999 27524.384329 27501.912847 27471.514252 27424.011525 27371.940958 27311.766039 27267.946784 27226.256046 27193.645176 27155.816951 27107.909142 27061.658497 27015.230472 26989.267739 26967.484494 26950.881623 26936.512070 26900.967612 26896.165768 26854.917142 26875.637409 26820.608678 26845.625961 26754.317413 26790.216168 26701.025981 26759.271915 26700.377511 26743.280531 26703.226772 26684.075968 26704.518836 26618.460330 26741.417597 26599.240506 26836.749363 26622.151720 26984.571321 26679.544426 27115.872004 27378.767387 27223.784155 27336.901375 27544.882295 27388.765471 27531.638581 27247.373231 28381.281113 27363.459108 27238.886226 26854.323610 28866.363838 27094.053261 29262.752237 30412.696758 24949.389939 16425.023213 8239.060126 28247.680005 20291.715468 14611.536188 16842.912113 17771.210834 19102.650149 17398.132283 17556.360398 16365.618529 19006.238041 17685.088963 20569.069173 18476.648274 19195.317423 18081.768697 20746.425727 17122.725566 22245.982273 19288.492390 20891.597402 20820.148754 19922.395065 20632.635909 21862.464051 21814.177241 20429.751288 22370.960464 22228.036757 24354.568071 23608.217901 22924.333575 24708.266616 23879.319305 23604.284528 24686.394982 27273.464242 27257.148468 26737.997481 26604.277603 25834.422848 25677.999635 25628.266260 26217.774114 26863.873353 27641.575858 28324.252216 28770.752172 29018.960266 29024.892756 28739.530770 28309.073805 28078.839691 28082.652671 28183.503496 28187.294404 28192.705313 28363.770287 28699.279487 29113.834516 29427.831291 29665.034217 29863.992414 30073.488557 30313.399130 30531.673877 30734.250792 30901.802892 31052.204058 31203.764635 31344.580316 31482.346182 31596.773563 31674.788121 31713.843508 31723.858456 31753.081590 31841.390222 31993.042319 32168.787725 32319.493858 32451.068427 32608.170711 32800.019243 32964.972140 33031.808643 33024.575490 33050.937891 33172.496822 33337.233486 33466.642886 33570.889340 33719.288383 33917.909638 34089.209519 34180.254283 34224.716919 34278.735669 34350.037524 34414.156543 34463.617014 34514.713373 34573.187034 34616.810423 34629.100954 34628.698760 34637.666877 34648.728915 34654.811001 34670.006205 34690.409264 34677.365020 34607.950620 34507.473029 34409.231310 34308.444371 34183.237096 34047.224639 33950.880071 33934.857106 34004.551618 34139.736716 34309.268180 34481.847680 34633.081780 34743.669378 34799.523362 34805.310684 34790.105969 34780.243778 34770.092076 34737.832950 34680.201771 34615.543935 34563.187303 34525.403535 34483.302828 34416.288489 34322.282286 34211.132326 34092.897241 33977.535415 33874.365605 33790.039046 33727.611102 33685.796285 33659.070219 33639.056929 33616.489437 33583.087111 33533.013687 33463.548568 33374.894767 33269.636997 33152.382592 33029.423474 32908.073861 32795.754815 32698.927518 32621.948363 32566.088295 32529.006391 32504.800524 32484.769993 32458.905010 32417.741612 32354.049009 32264.029076 32147.794550 32009.056316 31854.183765 31690.932265 31527.133901 31369.579014 31223.209175 31090.729594 30972.701268 30867.969556 30774.241903 30688.677067 30608.385370 30530.783645 30453.797667 30375.936307 30296.272302 30214.365788 30130.162461 30043.888474 29955.956463 29866.893402 29777.296535 29687.814070 29599.137522 29511.993618 29427.130484 29345.295534 29267.205217 29193.509444 29124.755127 29061.353649 29003.556360 28951.440861 28904.909197 28863.697563 28827.396006 28795.475876 28767.322606 28742.271463 28719.644280 28698.785513 28679.096315 28660.065462 28641.296053 28622.526800 28603.646703 28584.701829 28565.893068 28547.564003 28530.178530 28514.288516 28500.492572 28489.387855 28481.517657 28477.318245 28477.069007 28480.850226 28488.512821 28499.663955 28513.671550 28529.689426 28546.703005 28563.593460 28579.216007 28592.486018 28602.465120 28608.438713 28609.976579 28606.969585 28599.637747 28588.507894 28574.362467 28558.164222 28540.964329 28523.803291 28507.614999 28493.143930 28480.884119 28471.046081 28463.554798 28458.078426 28454.084062 28450.914079 28447.874480 28444.325657 28439.765821 28433.898174 28426.674410 28418.309292 28409.263647 28400.196090 28391.886980 28385.141255 28380.