<VTKFile type="PolyData">
<PolyData>
<Piece NumberOfPoints="320" NumberOfVerts="320" NumberOfLines="0" NumberOfStrips="0" NumberOfPolys="0">
<PointData>
<DataArray type="Float64" Name="Pressure" format="ascii">
 3646.566093 9589.435953 18864.089658 21861.264144 19904.759065 18436.951475 17258.217620 16149.733175 15199.102599 14555.995882 14207.098118 14029.694723 13936.593843 13887.376335 13862.151881 13848.422856 13838.691286 13828.078957 13812.597674 13788.574899 13753.508587 13706.806517 13655.718545 13613.159770 13594.565054 13661.962183 13863.190899 13517.463987 9865.874295 4100.932098 1209.353059 8072.061682 27347.504949 66566.192635 61310.322618 43864.638915 39482.977186 33703.813382 29153.304263 25099.835803 22557.280655 21152.588312 20370.883310 19909.435518 19648.339484 19507.268538 19427.169278 19372.129499 19320.600871 19260.083184 19187.421082 19117.398022 19083.128479 19161.226784 19484.808849 20005.313640 21237.936430 23377.548958 31083.950583 28907.890798 9533.965673 2084.151031 11970.786033 48618.782835 108243.130827 80671.970024 60683.762542 53666.560568 40827.354267 33853.042594 24437.051732 18420.404243 14772.942541 12565.841598 11190.930557 10392.999789 9958.777113 9706.408334 9536.974566 9395.303355 9259.803876 9140.656672 9121.581971 9333.960425 9867.570668 11559.653861 12766.297146 17153.153954 19468.905705 34998.297129 50470.255008 16148.600683 1557.881921 8750.824057 31060.687015 60514.322000 100825.524338 53674.176090 49009.571829 37574.223851 33874.243003 24346.917520 18852.058083 13634.468629 10454.930435 8616.736142 7510.891185 6904.431697 6547.786080 6310.634380 6123.837295 5962.153373 5832.586867 5878.346872 6215.418756 6678.674497 9095.988533 8515.491380 16741.436891 11493.028882 39398.225929 20052.503365 9136.807778 521.858319 5448.920735 19361.868548 45564.530970 45524.575426 46126.041720 35559.285799 28375.920106 18173.605402 11250.988430 9364.848132 6273.239005 4414.161158 3315.960081 2587.829170 2186.270582 1947.804017 1793.329895 1688.745272 1627.311378 1612.925503 1793.440950 2219.629464 2390.881062 4753.538951 3794.118373 7374.239856 9204.566829 1185.441983 8162.629727 2380.728604 95.234854 3613.842018 14602.718421 38834.597273 46308.055559 32650.379364 27629.498670 20132.840956 23306.837441 12273.177272 5939.964551 453.038237 -1641.772685 -2717.348630 -3344.240068 -3663.040747 -3845.390352 -3964.127346 -4051.875244 -4119.260560 -4173.491759 -4123.081646 -3880.031354 -3945.781432 -2501.237538 -1023.090766 -3024.755906 4423.348180 9674.684173 8455.449705 1193.604167 -27.967313 1832.558714 9521.095824 27356.518351 29674.501664 27627.651455 19497.321809 33546.531846 2424.779756 284.213483 -1.246799 -737.494754 942.873890 5991.022513 19958.310380 19696.013299 10327.631255 22509.301150 0.513565 -0.000000 -0.000000 -2484.083940 -6766.050143 -13383.122207 16434.093922 6449.772081 4987.809908 10533.178901 -0.000000 -0.000000 -0.000000 -1104.368062 -3521.501968 -8688.394371 -0.000000 0.000000 -0.000000 -35.830360 -98.994579 -208.520940 -0.000000 0.000000 -0.000000 0.000000 0.000000 0.000000 -0.000000 0.000000 -0.000000 0.000000 0.000000 0.000000 -0.000000 0.000000 -0.000000 0.000000 0.000000 0.000000 0.000000 0.000000 0.000000 0.000000 0.000000 -0.000000 -0.000000 0.000000 0.000000 0.000000 0.000000 -0.000000 -0.000000 0.000000 0.000000 0.000000 0.000000 0.000000 0.000000 0.000000 0.000000 0.000000 0.000000 0.000000 0.000000 0.000000 0.000000 0.000000 0.000000 0.000000 0.000000 0.000000 0.000000 0.000000 0.000000 0.000000 0.000000 0.000000 0.000000 0.000000 0.000000 -0.000000 0.000000 0.000000 0.000000 0.000000 0.000000 0.000000 0.000000 0.000000 0.000000 0.000000 0.000000 0.000000 0.000000 0.000000 0.000000 0.000000 0.000000 0.000000 -0.000000 -0.000000 -0.000000 -0.000000 -0.000000 -0.000000 -0.000000 -0.000000 -0.000000 -0.000000 -0.000000 -0.000000 -0.000000 -0.000000 0.000000 0.000000 0.000000
</DataArray>
<DataArray type="Float64" Name="Velocity" NumberOfComponents="3" format="ascii">
 0.000000 0.000000 0.000000 0.000000 0.000000 0.000000 0.000000 0.000000 0.000000 0.000000 0.000000 0.000000 0.000000 0.000000 0.000000 0.000000 0.000000 0.000000 0.000000 0.000000 0.000000 0.000000 0.000000 0.000000 0.000000 0.000000 0.000000 0.000000 0.000000 0.000000 0.000000 0.000000 0.000000 0.000000 0.000000 0.000000 0.000000 0.000000 0.000000 0.000000 0.000000 0.000000 0.000000 0.000000 0.000000 0.000000 0.000000 0.000000 0.000000 0.000000 0.000000 0.000000 0.000000 0.000000 0.000000 0.000000 0.000000 0.000000 0.000000 0.000000 0.000000 0.000000 0.000000 0.000000 0.000000 0.000000 0.000000 0.000000 0.000000 0.000000 0.000000 0.000000 0.000000 0.000000 0.000000 0.000000 0.000000 0.000000 0.000000 0.000000 0.000000 0.000000 0.000000 0.000000 0.000000 0.000000 0.000000 0.000000 0.000000 0.000000 0.000000 0.000000 0.000000 0.000000 0.000000 0.000000 0.000000 0.000000 0.000000 0.000000 0.000000 0.000000 0.000000 0.000000 0.000000 0.000000 0.000000 0.000000 0.000000 0.000000 0.000000 0.000000 0.000000 0.000000 0.000000 0.000000 0.000000 0.000000 0.000000 0.000000 0.000000 0.000000 0.000000 0.000000 0.000000 0.000000 0.000000 0.000000 0.000000 0.000000 0.000000 0.000000 0.000000 0.000000 0.000000 0.000000 0.000000 0.000000 0.000000 0.000000 0.000000 0.000000 0.000000 0.000000 0.000000 0.000000 0.000000 0.000000 0.000000 0.000000 0.000000 0.000000 0.000000 0.000000 0.000000 0.000000 0.000000 0.000000 0.000000 0.000000 0.000000 0.000000 0.000000 0.000000 0.000000 0.000000 0.000000 0.000000 0.000000 0.000000 0.000000 0.000000 0.000000 0.000000 0.000000 0.000000 0.000000 0.000000 0.000000 0.000000 0.000000 0.000000 0.000000 0.000000 0.000000 0.000000 0.000000 0.000000 0.000000 0.000000 0.000000 0.000000 0.000000 0.000000 0.000000 0.000000 0.000000 0.000000 0.000000 0.000000 0.000000 0.000000 0.000000 0.000000 0.000000 0.000000 0.000000 0.000000 0.000000 0.000000 0.000000 0.000000 0.000000 0.000000 0.000000 0.000000 0.000000 0.000000 0.000000 0.000000 0.000000 0.000000 0.000000 0.000000 0.000000 0.000000 0.000000 0.000000 0.000000 0.000000 0.000000 0.000000 0.000000 0.000000 0.000000 0.000000 0.000000 0.000000 0.000000 0.000000 0.000000 0.000000 0.000000 0.000000 0.000000 0.000000 0.000000 0.000000 0.000000 0.000000 0.000000 0.000000 0.000000 0.000000 0.000000 0.000000 0.000000 0.000000 0.000000 0.000000 0.000000 0.000000 0.000000 0.000000 0.000000 0.000000 0.000000 0.000000 0.000000 0.000000 0.000000 0.000000 0.000000 0.000000 0.000000 0.000000 0.000000 0.000000 0.000000 0.000000 0.000000 0.000000 0.000000 0.000000 0.000000 0.000000 0.000000 0.000000 0.486214 -0.676277 0.000000 0.176417 0.096448 0.000000 0.885559 -0.142634 0.000000 1.363105 0.324886 0.000000 1.227518 0.611414 0.000000 1.127657 0.775044 0.000000 0.773062 0.780232 0.000000 0.505525 0.748444 0.000000 0.290158 0.749120 0.000000 0.155898 0.749127 0.000000 0.082975 0.748716 0.000000 0.043706 0.749253 0.000000 0.026027 0.749760 0.000000 0.021406 0.749835 0.000000 0.025622 0.748983 0.000000 0.036920 0.746388 0.000000 0.051999 0.740173 0.000000 0.071661 0.728263 0.000000 0.091671 0.711461 0.000000 0.068623 0.679504 0.000000 0.146377 0.642134 0.000000 -0.108181 0.595411 0.000000 0.259621 0.478069 0.000000 -0.255351 0.832205 0.000000 0.677590 -0.258031 0.000000 0.000000 0.000000 0.000000 0.000000 0.000000 0.000000 0.000000 0.000000 0.000000 0.000000 0.000000 0.000000 0.000000 0.000000 0.000000 0.000000 0.000000 0.000000 1.009362 -0.128408 0.000000 0.181741 -0.825706 0.000000 1.459285 0.113040 0.000000 1.527422 -0.048122 0.000000 1.617397 0.046322 0.000000 1.294498 0.369078 0.000000 0.767212 0.532907 0.000000 0.451631 0.514704 0.000000 0.254015 0.449223 0.000000 0.132757 0.399161 0.000000 0.070637 0.368183 0.000000 0.037314 0.351053 0.000000 0.022100 0.341301 0.000000 0.017727 0.334398 0.000000 0.020376 0.327310 0.000000 0.028210 0.317638 0.000000 0.037496 0.303409 0.000000 0.051037 0.284328 0.000000 0.065705 0.260681 0.000000 0.029769 0.232675 0.000000 0.117057 0.208872 0.000000 -0.078856 0.211794 0.000000 0.038907 0.288115 0.000000 0.155208 -0.247527 0.000000 -0.469894 0.735181 0.000000 0.000000 0.000000 0.000000 0.000000 0.000000 0.000000 0.000000 0.000000 0.000000 0.000000 0.000000 0.000000 0.000000 0.000000 0.000000 0.000000 0.000000 0.000000 0.145325 -0.936383 0.000000 0.791434 -0.930933 0.000000 1.286130 -0.572579 0.000000 1.519624 -0.892898 0.000000 3.086993 1.971205 0.000000 1.610938 2.315548 0.000000 0.808006 1.716598 0.000000 0.401409 1.247503 0.000000 0.197980 0.995550 0.000000 0.094528 0.861907 0.000000 0.048042 0.789143 0.000000 0.024655 0.751065 0.000000 0.014313 0.730282 0.000000 0.011429 0.716208 0.000000 0.013293 0.702670 0.000000 0.018819 0.685226 0.000000 0.025815 0.661025 0.000000 0.037528 0.631534 0.000000 0.053285 0.591436 0.000000 0.032565 0.546560 0.000000 0.106385 0.569930 0.000000 0.077219 0.492214 0.000000 -0.066203 0.597766 0.000000 -0.108120 0.733758 0.000000 -0.046422 1.173461 0.000000 0.000000 0.000000 0.000000 0.000000 0.000000 0.000000 0.000000 0.000000 0.000000 0.000000 0.000000 0.000000 0.000000 0.000000 0.000000 0.000000 0.000000 0.000000 0.192325 -0.397316 0.000000 0.876552 -0.945633 0.000000 0.907547 -1.216457 0.000000 3.067378 -0.095269 0.000000 0.000000 0.000000 0.000000 0.000000 0.000000 0.000000 0.000000 0.000000 0.000000 0.000000 0.000000 0.000000 0.000000 0.000000 0.000000 0.000000 0.000000 0.000000 -0.138311 -0.809781 0.000000 0.582156 -1.224339 0.000000 0.613871 -1.690290 0.000000 2.924286 -1.353591 0.000000 0.000000 0.000000 0.000000 0.000000 0.000000 0.000000 0.000000 0.000000 0.000000 0.000000 0.000000 0.000000 0.000000 0.000000 0.000000 0.000000 0.000000 0.000000 -0.823541 -0.203507 0.000000 0.386513 -1.618370 0.000000 0.142199 -2.014139 0.000000 1.251198 -1.941053 0.000000 0.000000 0.000000 0.000000 0.000000 0.000000 0.000000 0.000000 0.000000 0.000000 0.000000 0.000000 0.000000 0.000000 0.000000 0.000000 0.000000 0.000000 0.000000 0.000000 0.000000 0.000000 0.000000 0.000000 0.000000 0.000000 0.000000 0.000000 0.000000 0.000000 0.000000 0.000000 0.000000 0.000000 0.000000 0.000000 0.000000 0.000000 0.000000 0.000000 0.000000 0.000000 0.000000 0.000000 0.000000 0.000000 0.000000 0.000000 0.000000 0.000000 0.000000 0.000000 0.000000 0.000000 0.000000 0.000000 0.000000 0.000000 0.000000 0.000000 0.000000 0.000000 0.000000 0.000000 0.000000 0.000000 0.000000 0.000000 0.000000 0.000000 0.000000 0.000000 0.000000 0.000000 0.000000 0.000000 0.000000 0.000000 0.000000 0.000000 0.000000 0.000000 0.000000 0.000000 0.000000 0.000000 0.000000 0.000000 0.000000 0.000000 0.000000 0.000000 0.000000 0.000000 0.000000 0.000000 0.000000 0.000000 0.000000 0.000000 0.000000 0.000000 0.000000 0.000000 0.000000 0.000000 0.000000 0.000000 0.000000 0.000000 0.000000 0.000000 0.000000 0.000000 0.000000 0.000000 0.000000 0.000000 0.000000 0.000000 0.000000 0.000000 0.000000 0.000000 0.000000 0.000000 0.000000 0.000000 0.000000 0.000000 0.000000 0.000000 0.000000 0.000000 0.000000 0.000000 0.000000 0.000000 0.000000 0.000000 0.000000 0.000000 0.000000 0.000000 0.000000 0.000000 0.000000 0.000000 0.000000 0.000000 0.000000 0.000000 0.000000 0.000000 0.000000 0.000000 0.000000 0.000000 0.000000 0.000000 0.000000 0.000000 0.000000 0.000000 0.000000 0.000000 0.000000 0.000000 0.000000 0.000000 0.000000 0.000000 0.000000 0.000000 0.000000 0.000000 0.000000 0.000000 0.000000 0.000000 0.000000 0.000000 0.000000 0.000000 0.000000 0.000000 0.000000 0.000000 0.000000 0.000000 0.000000 0.000000 0.000000 0.000000 0.000000 0.000000 0.000000 0.000000 0.000000 0.000000 0.000000 0.000000 0.000000 0.000000 0.000000 0.000000 0.000000 0.000000 0.000000 0.000000 0.000000 0.000000 0.000000 0.000000 0.000000 0.000000 0.000000 0.000000 0.000000 0.000000 0.000000 0.000000 0.000000 0.000000 0.000000 0.000000 0.000000 0.000000 0.000000 0.000000 0.000000 0.000000 0.000000 0.000000 0.000000 0.000000 0.000000 0.000000 0.000000 0.000000 0.000000 0.000000 0.000000 0.000000 0.000000 0.000000 0.000000 0.000000 0.000000 0.000000 0.000000 0.000000 0.000000 0.000000 0.000000 0.000000 0.000000 0.000000 0.000000 0.000000 0.000000 0.000000 0.000000 0.000000 0.000000 0.000000 0.000000 0.000000 0.000000 0.000000 0.000000 0.000000 0.000000 0.000000 0.000000 0.000000 0.000000 0.000000 0.000000 0.000000 0.000000 0.000000 0.000000 0.000000 0.000000 0.000000 0.000000 0.000000 0.000000 0.000000 0.000000 0.000000 0.000000 0.000000 0.000000 0.000000 0.000000 0.000000 0.000000 0.000000 0.000000 0.000000 0.000000 0.000000 0.000000 0.000000 0.000000 0.000000 0.000000 0.000000 0.000000 0.000000 0.000000 0.000000 0.000000 0.000000 0.000000 0.000000 0.000000 0.000000 0.000000 0.000000
</DataArray>
</PointData>
<Points>
<DataArray type="Float64" Name="Points" NumberOfComponents="3" format="ascii">
 -2.080000 -2.080000 0.000000 -1.280000 -2.080000 0.000000 -0.480000 -2.080000 0.000000 0.320000 -2.080000 0.000000 1.120000 -2.080000 0.000000 1.920000 -2.080000 0.000000 2.720000 -2.080000 0.000000 3.520000 -2.080000 0.000000 4.320000 -2.080000 0.000000 5.120000 -2.080000 0.000000 5.920000 -2.080000 0.000000 6.720000 -2.080000 0.000000 7.520000 -2.080000 0.000000 8.320000 -2.080000 0.000000 9.120000 -2.080000 0.000000 9.920000 -2.080000 0.000000 10.720000 -2.080000 0.000000 11.520000 -2.080000 0.000000 12.320000 -2.080000 0.000000 13.120000 -2.080000 0.000000 13.920000 -2.080000 0.000000 14.720000 -2.080000 0.000000 15.520000 -2.080000 0.000000 16.320000 -2.080000 0.000000 17.120000 -2.080000 0.000000 17.920000 -2.080000 0.000000 18.720000 -2.080000 0.000000 19.520000 -2.080000 0.000000 20.320000 -2.080000 0.000000 21.120000 -2.080000 0.000000 21.920000 -2.080000 0.000000 -2.080000 -1.280000 0.000000 -1.280000 -1.280000 0.000000 -0.480000 -1.280000 0.000000 0.320000 -1.280000 0.000000 1.120000 -1.280000 0.000000 1.920000 -1.280000 0.000000 2.720000 -1.280000 0.000000 3.520000 -1.280000 0.000000 4.320000 -1.280000 0.000000 5.120000 -1.280000 0.000000 5.920000 -1.280000 0.000000 6.720000 -1.280000 0.000000 7.520000 -1.280000 0.000000 8.320000 -1.280000 0.000000 9.120000 -1.280000 0.000000 9.920000 -1.280000 0.000000 10.720000 -1.280000 0.000000 11.520000 -1.280000 0.000000 12.320000 -1.280000 0.000000 13.120000 -1.280000 0.000000 13.920000 -1.280000 0.000000 14.720000 -1.280000 0.000000 15.520000 -1.280000 0.000000 16.320000 -1.280000 0.000000 17.120000 -1.280000 0.000000 17.920000 -1.280000 0.000000 18.720000 -1.280000 0.000000 19.520000 -1.280000 0.000000 20.320000 -1.280000 0.000000 21.120000 -1.280000 0.000000 21.920000 -1.280000 0.000000 -2.080000 -0.480000 0.000000 -1.280000 -0.480000 0.000000 -0.480000 -0.480000 0.000000 0.320000 -0.480000 0.000000 1.120000 -0.480000 0.000000 1.920000 -0.480000 0.000000 2.720000 -0.480000 0.000000 3.520000 -0.480000 0.000000 4.320000 -0.480000 0.000000 5.120000 -0.480000 0.000000 5.920000 -0.480000 0.000000 6.720000 -0.480000 0.000000 7.520000 -0.480000 0.000000 8.320000 -0.480000 0.000000 9.120000 -0.480000 0.000000 9.920000 -0.480000 0.000000 10.720000 -0.480000 0.000000 11.520000 -0.480000 0.000000 12.320000 -0.480000 0.000000 13.120000 -0.480000 0.000000 13.920000 -0.480000 0.000000 14.720000 -0.480000 0.000000 15.520000 -0.480000 0.000000 16.320000 -0.480000 0.000000 17.120000 -0.480000 0.000000 17.920000 -0.480000 0.000000 18.720000 -0.480000 0.000000 19.520000 -0.480000 0.000000 20.320000 -0.480000 0.000000 21.120000 -0.480000 0.000000 21.920000 -0.480000 0.000000 -2.080000 0.320000 0.000000 -1.280000 0.320000 0.000000 -0.480000 0.320000 0.000000 -0.154276 -0.268609 0.000000 1.062408 0.066454 0.000000 1.898593 0.072763 0.000000 2.829408 0.141826 0.000000 3.630728 0.198448 0.000000 4.421101 0.238213 0.000000 5.187258 0.252999 0.000000 5.960515 0.254389 0.000000 6.742011 0.255320 0.000000 7.531024 0.255756 0.000000 8.325441 0.255883 0.000000 9.122687 0.255963 0.000000 9.921547 0.256015 0.000000 10.721394 0.256036 0.000000 11.522022 0.256012 0.000000 12.323534 0.255887 0.000000 13.126201 0.255517 0.000000 13.930769 0.254700 0.000000 14.737430 0.253072 0.000000 15.546130 0.249437 0.000000 16.365495 0.243832 0.000000 17.164540 0.231672 0.000000 18.047910 0.214996 0.000000 18.784851 0.221750 0.000000 19.970612 -0.099156 0.000000 20.320000 0.320000 0.000000 21.120000 0.320000 0.000000 21.920000 0.320000 0.000000 -2.080000 1.120000 0.000000 -1.280000 1.120000 0.000000 -0.480000 1.120000 0.000000 0.238518 0.819407 0.000000 1.086731 0.743708 0.000000 1.987868 0.860005 0.000000 2.881301 0.883369 0.000000 3.704485 0.948374 0.000000 4.460952 1.014336 0.000000 5.196461 1.038918 0.000000 5.958665 1.041041 0.000000 6.740154 1.037393 0.000000 7.529761 1.034401 0.000000 8.324750 1.032595 0.000000 9.122343 1.031631 0.000000 9.921340 1.031106 0.000000 10.721180 1.030723 0.000000 11.521663 1.030260 0.000000 12.322827 1.029486 0.000000 13.124830 1.028100 0.000000 13.928331 1.025715 0.000000 14.733098 1.021689 0.000000 15.538647 1.015188 0.000000 16.355083 1.005631 0.000000 17.147984 0.992938 0.000000 18.005694 0.968083 0.000000 18.781811 0.886683 0.000000 19.623891 0.987819 0.000000 20.320000 1.120000 0.000000 21.120000 1.120000 0.000000 21.920000 1.120000 0.000000 -2.080000 1.920000 0.000000 -1.280000 1.920000 0.000000 -0.480000 1.920000 0.000000 0.186649 1.343990 0.000000 1.144949 1.337560 0.000000 2.001242 1.396622 0.000000 2.967785 1.471368 0.000000 3.918663 1.928520 0.000000 4.491872 2.007124 0.000000 5.197657 1.937985 0.000000 5.954948 1.893827 0.000000 6.736445 1.872222 0.000000 7.527389 1.861644 0.000000 8.323435 1.856465 0.000000 9.121644 1.853949 0.000000 9.920920 1.852658 0.000000 10.720806 1.851770 0.000000 11.521149 1.850759 0.000000 12.321985 1.849141 0.000000 13.123457 1.846367 0.000000 13.926131 1.841738 0.000000 14.729902 1.833847 0.000000 15.534442 1.822486 0.000000 16.348634 1.807215 0.000000 17.149043 1.776159 0.000000 17.966220 1.759831 0.000000 18.769276 1.690130 0.000000 19.659355 1.730009 0.000000 20.320000 1.920000 0.000000 21.120000 1.920000 0.000000 21.920000 1.920000 0.000000 -2.080000 2.720000 0.000000 -1.280000 2.720000 0.000000 -0.480000 2.720000 0.000000 0.242784 2.127396 0.000000 1.175234 2.112034 0.000000 1.979212 2.095918 0.000000 3.180996 2.252709 0.000000 20.320000 2.720000 0.000000 21.120000 2.720000 0.000000 21.920000 2.720000 0.000000 -2.080000 3.520000 0.000000 -1.280000 3.520000 0.000000 -0.480000 3.520000 0.000000 0.225964 2.787890 0.000000 1.156014 2.732542 0.000000 1.959968 2.705738 0.000000 3.104833 2.707683 0.000000 20.320000 3.520000 0.000000 21.120000 3.520000 0.000000 21.920000 3.520000 0.000000 -2.080000 4.320000 0.000000 -1.280000 4.320000 0.000000 -0.480000 4.320000 0.000000 0.098493 3.600800 0.000000 1.132538 3.414242 0.000000 1.922102 3.406053 0.000000 2.872337 3.387257 0.000000 20.320000 4.320000 0.000000 21.120000 4.320000 0.000000 21.920000 4.320000 0.000000 -2.080000 5.120000 0.000000 -1.280000 5.120000 0.000000 -0.480000 5.120000 0.000000 20.320000 5.120000 0.000000 21.120000 5.120000 0.000000 21.920000 5.120000 0.000000 -2.080000 5.920000 0.000000 -1.280000 5.920000 0.000000 -0.480000 5.920000 0.000000 20.320000 5.920000 0.000000 21.120000 5.920000 0.000000 21.920000 5.920000 0.000000 -2.080000 6.720000 0.000000 -1.280000 6.720000 0.000000 -0.480000 6.720000 0.000000 20.320000 6.720000 0.000000 21.120000 6.720000 0.000000 21.920000 6.720000 0.000000 -2.080000 7.520000 0.000000 -1.280000 7.520000 0.000000 -0.480000 7.520000 0.000000 20.320000 7.520000 0.000000 21.120000 7.520000 0.000000 21.920000 7.520000 0.000000 -2.080000 8.320000 0.000000 -1.280000 8.320000 0.000000 -0.480000 8.320000 0.000000 20.320000 8.320000 0.000000 21.120000 8.320000 0.000000 21.920000 8.320000 0.000000 -2.080000 9.120000 0.000000 -1.280000 9.120000 0.000000 -0.480000 9.120000 0.000000 20.320000 9.120000 0.000000 21.120000 9.120000 0.000000 21.920000 9.120000 0.000000 -2.080000 9.920000 0.000000 -1.280000 9.920000 0.000000 -0.480000 9.920000 0.000000 20.320000 9.920000 0.000000 21.120000 9.920000 0.000000 21.920000 9.920000 0.000000 -2.080000 10.720000 0.000000 -1.280000 10.720000 0.000000 -0.480000 10.720000 0.000000 0.320000 10.720000 0.000000 1.120000 10.720000 0.000000 1.920000 10.720000 0.000000 2.720000 10.720000 0.000000 3.520000 10.720000 0.000000 4.320000 10.720000 0.000000 5.120000 10.720000 0.000000 5.920000 10.720000 0.000000 6.720000 10.720000 0.000000 7.520000 10.720000 0.000000 8.320000 10.720000 0.000000 9.120000 10.720000 0.000000 9.920000 10.720000 0.000000 10.720000 10.720000 0.000000 11.520000 10.720000 0.000000 12.320000 10.720000 0.000000 13.120000 10.720000 0.000000 13.920000 10.720000 0.000000 14.720000 10.720000 0.000000 15.520000 10.720000 0.000000 16.320000 10.720000 0.000000 17.120000 10.720000 0.000000 17.920000 10.720000 0.000000 18.720000 10.720000 0.000000 19.520000 10.720000 0.000000 20.320000 10.720000 0.000000 21.120000 10.720000 0.000000 21.920000 10.720000 0.000000 -2.080000 11.520000 0.000000 -1.280000 11.520000 0.000000 -0.480000 11.520000 0.000000 0.320000 11.520000 0.000000 1.120000 11.520000 0.000000 1.920000 11.520000 0.000000 2.720000 11.520000 0.000000 3.520000 11.520000 0.000000 4.320000 11.520000 0.000000 5.120000 11.520000 0.000000 5.920000 11.520000 0.000000 6.720000 11.520000 0.000000 7.520000 11.520000 0.000000 8.320000 11.520000 0.000000 9.120000 11.520000 0.000000 9.920000 11.520000 0.000000 10.720000 11.520000 0.000000 11.520000 11.520000 0.000000 12.320000 11.520000 0.000000 13.120000 11.520000 0.000000 13.920000 11.520000 0.000000 14.720000 11.520000 0.000000 15.520000 11.520000 0.000000 16.320000 11.520000 0.000000 17.120000 11.520000 0.000000 17.920000 11.520000 0.000000 18.720000 11.520000 0.000000 19.520000 11.520000 0.000000 20.320000 11.520000 0.000000 21.120000 11.520000 0.000000 21.920000 11.520000 0.000000
</DataArray>
</Points>
<Verts>
<DataArray type="Int32" Name="connectivity" format="ascii">
 0 1 2 3 4 5 6 7 8 9 10 11 12 13 14 15 16 17 18 19 20 21 22 23 24 25 26 27 28 29 30 31 32 33 34 35 36 37 38 39 40 41 42 43 44 45 46 47 48 49 50 51 52 53 54 55 56 57 58 59 60 61 62 63 64 65 66 67 68 69 70 71 72 73 74 75 76 77 78 79 80 81 82 83 84 85 86 87 88 89 90 91 92 93 94 95 96 97 98 99 100 101 102 103 104 105 106 107 108 109 110 111 112 113 114 115 116 117 118 119 120 121 122 123 124 125 126 127 128 129 130 131 132 133 134 135 136 137 138 139 140 141 142 143 144 145 146 147 148 149 150 151 152 153 154 155 156 157 158 159 160 161 162 163 164 165 166 167 168 169 170 171 172 173 174 175 176 177 178 179 180 181 182 183 184 185 186 187 188 189 190 191 192 193 194 195 196 197 198 199 200 201 202 203 204 205 206 207 208 209 210 211 212 213 214 215 216 217 218 219 220 221 222 223 224 225 226 227 228 229 230 231 232 233 234 235 236 237 238 239 240 241 242 243 244 245 246 247 248 249 250 251 252 253 254 255 256 257 258 259 260 261 262 263 264 265 266 267 268 269 270 271 272 273 274 275 276 277 278 279 280 281 282 283 284 285 286 287 288 289 290 291 292 293 294 295 296 297 298 299 300 301 302 303 304 305 306 307 308 309 310 311 312 313 314 315 316 317 318 319
</DataArray>
<DataArray type="Int32" Name="offsets" format="ascii">
 1 2 3 4 5 6 7 8 9 10 11 12 13 14 15 16 17 18 19 20 21 22 23 24 25 26 27 28 29 30 31 32 33 34 35 36 37 38 39 40 41 42 43 44 45 46 47 48 49 50 51 52 53 54 55 56 57 58 59 60 61 62 63 64 65 66 67 68 69 70 71 72 73 74 75 76 77 78 79 80 81 82 83 84 85 86 87 88 89 90 91 92 93 94 95 96 97 98 99 100 101 102 103 104 105 106 107 108 109 110 111 112 113 114 115 116 117 118 119 120 121 122 123 124 125 126 127 128 129 130 131 132 133 134 135 136 137 138 139 140 141 142 143 144 145 146 147 148 149 150 151 152 153 154 155 156 157 158 159 160 161 162 163 164 165 166 167 168 169 170 171 172 173 174 175 176 177 178 179 180 181 182 183 184 185 186 187 188 189 190 191 192 193 194 195 196 197 198 199 200 201 202 203 204 205 206 207 208 209 210 211 212 213 214 215 216 217 218 219 220 221 222 223 224 225 226 227 228 229 230 231 232 233 234 235 236 237 238 239 240 241 242 243 244 245 246 247 248 249 250 251 252 253 254 255 256 257 258 259 260 261 262 263 264 265 266 267 268 269 270 271 272 273 274 275 276 277 278 279 280 281 282 283 284 285 286 287 288 289 290 291 292 293 294 295 296 297 298 299 300 301 302 303 304 305 306 307 308 309 310 311 312 313 314 315 316 317 318 319 320
</DataArray>
</Verts>
</Piece>
</PolyData>
</VTKFile>
