<VTKFile type="PolyData">
<PolyData>
<Piece NumberOfPoints="592" NumberOfVerts="592" NumberOfLines="0" NumberOfStrips="0" NumberOfPolys="0">
<PointData>
<DataArray type="Float64" Name="Pressure" format="ascii">
 9889.680567 19106.222675 30078.235781 31662.155020 27864.022915 25867.449661 24479.743584 22807.269777 21184.878351 19561.439656 17985.029900 16658.508978 15653.187727 14949.939398 14488.274191 14197.701652 14019.266353 13911.967285 13849.160745 13813.365146 13793.440353 13782.524879 13776.471720 13772.765592 13769.789478 13766.339412 13761.316280 13753.570730 13741.922311 13725.392979 13703.752012 13678.391231 13653.198959 13635.924060 13637.682525 13672.828649 13760.146336 13905.496012 14132.573901 14423.832863 14817.157381 15334.394751 15001.220885 11170.550794 5406.096390 2298.154518 16178.669793 34737.510011 56399.838598 53912.340857 42435.347765 43006.775695 40230.379615 34313.287497 32001.787214 29476.925220 26402.596300 22763.621077 19314.730751 16719.220712 15001.977833 13895.232565 13169.033784 12704.490056 12416.590927 12242.265011 12138.984814 12078.611633 12043.019744 12020.611290 12003.901383 11987.981511 11969.761404 11947.924065 11923.602066 11901.755285 11892.246470 11911.721583 11983.349198 12127.890560 12382.744284 12710.039185 13193.110026 13663.120933 14277.142730 14790.878881 15270.055642 15571.325901 16892.214791 14392.528588 7461.933006 2733.845800 19219.507656 41673.938470 61508.720649 61029.998986 47278.014280 50451.890790 47868.962841 37578.138229 42840.114480 42521.340579 39342.386858 34559.334481 27864.684303 21558.176948 16637.219541 13195.528987 10809.517037 9210.123648 8185.035207 7539.768719 7141.145753 6897.563973 6748.143781 6652.976908 6586.787895 6535.280303 6493.792022 6467.445313 6473.042544 6541.304502 6707.570570 7021.329618 7523.280700 8148.885292 9072.720846 9586.691611 10521.286169 10645.591319 10526.651483 10344.216700 8930.346372 4800.601558 6889.182790 8612.216490 5802.830246 1892.068997 13969.005801 29472.453709 48845.365765 69442.945192 52694.817809 45022.582343 41646.079507 41838.722633 45047.614420 32133.195195 27648.045661 24595.913861 22634.981807 20492.644373 17210.452902 14284.269940 11949.766245 10208.178041 9016.417498 8226.104868 7717.546261 7395.588214 7192.649517 7062.609439 6976.310620 6918.985594 6889.286984 6898.375661 6971.706799 7148.126086 7448.769515 7922.957577 8565.924159 9121.352917 10133.365731 9759.213531 10704.722008 9985.747636 8117.533084 9338.810206 7123.648590 8492.312236 3143.665697 5845.854996 3840.399124 795.905369 10425.418781 22458.255650 35134.941736 46227.736133 47549.451935 36034.254021 41233.059237 31474.519783 23435.853150 20693.253083 31474.482156 28483.983878 20033.805874 14660.079812 10517.621393 7724.507749 5865.472897 4568.505549 3710.648195 3146.808888 2784.540952 2553.773530 2407.358853 2313.894647 2253.947613 2218.235348 2206.474521 2224.995383 2288.359442 2417.415188 2599.259278 2874.437176 3231.937964 3321.943852 4076.237285 3347.484091 4358.132424 4195.669177 2041.062119 6938.674001 1945.201827 5943.620509 7308.634859 -278.062436 1274.969473 421.192410 8762.498537 18603.208955 25795.117555 38514.031485 31230.039885 34589.365943 35232.157386 18035.399435 29014.383574 22892.687078 17279.488877 7347.926770 5410.203330 6412.390692 4656.409363 2840.918733 1400.453502 387.855819 -264.205925 -685.355052 -951.095684 -1118.201741 -1223.302825 -1289.954679 -1332.612673 -1358.459760 -1368.603343 -1360.460304 -1325.763900 -1250.522118 -1152.566299 -989.963109 -736.737468 -756.701986 -94.585502 -330.374515 13.304874 820.001356 -802.030284 3104.194131 -119.830743 -481.139182 2243.014490 473.976123 931.867086 251.344708 7115.937306 15019.477093 17937.038005 35599.209114 31075.818783 30454.422830 26212.966586 26704.162633 36533.680961 23810.225688 8614.912950 30996.478193 23880.874338 13233.583801 7947.788588 5378.757325 3998.621593 3246.920755 2811.671365 2541.964376 2374.077715 2268.275174 2201.325928 2158.904842 2132.609539 2118.704492 2117.565256 2131.972188 2167.315781 2233.947258 2317.176554 2422.204628 2605.210953 2550.410789 2694.629755 2938.807656 1969.320166 2708.293366 2695.949777 1569.429800 1844.706616 3323.438489 -3025.381666 6973.210445 875.522140 78.946393 5588.830176 13008.472201 15167.447444 29774.355362 23155.230912 23138.840598 20456.076845 20851.832639 8735.123606 4808.873735 355.660245 0.404374 4248.408724 10674.632750 13718.889584 18455.001986 20267.922715 18774.049679 21019.418698 15235.969036 30234.701747 316.482944 0.000000 0.000000 3281.619600 8830.026570 11089.178243 12290.089307 16101.070336 15471.027293 18559.718459 10654.036078 30790.711996 0.000000 0.000000 0.000000 1795.749786 5240.597578 -1268.236931 11730.063434 10694.420954 11368.426014 16794.265742 7833.753607 24381.709324 0.000000 0.000000 0.000000 -1560.627274 -1339.553067 -5829.688231 728.058847 8021.664412 4384.109567 9534.435701 3297.286258 12426.586984 0.000000 0.000000 0.000000 -3627.951731 -7747.867640 -12748.190566 -542.102910 6453.340853 1215.067567 3272.595729 3165.632233 6300.516037 0.000000 0.000000 0.000000 -1402.901509 -3330.792000 -6554.156158 0.000000 0.000000 0.000000 -37.802448 -75.522105 -124.249289 0.000000 0.000000 0.000000 0.000000 0.000000 0.000000 0.000000 0.000000 0.000000 0.000000 0.000000 0.000000 0.000000 0.000000 0.000000 0.000000 -0.000000 0.000000 0.000000 -0.000000 0.000000 0.000000 -0.000000 0.000000 0.000000 -0.000000 0.000000 0.000000 0.000000 0.000000 0.000000 0.000000 0.000000 0.000000 0.000000 0.000000 0.000000 0.000000 0.000000 0.000000 0.000000 0.000000 0.000000 0.000000 0.000000 0.000000 0.000000 0.000000 0.000000 0.000000 0.000000 0.000000 0.000000 0.000000 0.000000 0.000000 0.000000 0.000000 0.000000 0.000000 0.000000 0.000000 0.000000 0.000000 0.000000 0.000000 0.000000 0.000000 0.000000 0.000000 0.000000 0.000000 0.000000 0.000000 0.000000 0.000000 0.000000 0.000000 0.000000 0.000000 0.000000 0.000000 0.000000 0.000000 0.000000 0.000000 0.000000 0.000000 0.000000 0.000000 0.000000 0.000000 0.000000 0.000000 0.000000 0.000000 0.000000 0.000000 0.000000 0.000000 0.000000 0.000000 -0.000000 0.000000 0.000000 0.000000 0.000000 0.000000 0.000000 0.000000 0.000000 0.000000 0.000000 0.000000 0.000000 0.000000 0.000000 0.000000 0.000000 0.000000 0.000000 0.000000 0.000000 0.000000 0.000000 0.000000 0.000000 0.000000 0.000000 0.000000 0.000000 0.000000 0.000000 0.000000 0.000000 0.000000 0.000000 0.000000 0.000000 0.000000 0.000000 0.000000 -0.000000 0.000000 0.000000 0.000000 0.000000 0.000000 0.000000 0.000000 0.000000 0.000000 0.000000 0.000000 0.000000 0.000000 0.000000 0.000000 0.000000 0.000000 0.000000 0.000000 0.000000 0.000000 0.000000 0.000000 0.000000 0.000000 0.000000 0.000000 0.000000 0.000000 0.000000 0.000000 0.000000 0.000000 0.000000 0.000000 0.000000 0.000000 0.000000 0.000000 0.000000 0.000000 0.000000 0.000000 0.000000 0.000000 0.000000
</DataArray>
<DataArray type="Float64" Name="Velocity" NumberOfComponents="3" format="ascii">
 0.000000 0.000000 0.000000 0.000000 0.000000 0.000000 0.000000 0.000000 0.000000 0.000000 0.000000 0.000000 0.000000 0.000000 0.000000 0.000000 0.000000 0.000000 0.000000 0.000000 0.000000 0.000000 0.000000 0.000000 0.000000 0.000000 0.000000 0.000000 0.000000 0.000000 0.000000 0.000000 0.000000 0.000000 0.000000 0.000000 0.000000 0.000000 0.000000 0.000000 0.000000 0.000000 0.000000 0.000000 0.000000 0.000000 0.000000 0.000000 0.000000 0.000000 0.000000 0.000000 0.000000 0.000000 0.000000 0.000000 0.000000 0.000000 0.000000 0.000000 0.000000 0.000000 0.000000 0.000000 0.000000 0.000000 0.000000 0.000000 0.000000 0.000000 0.000000 0.000000 0.000000 0.000000 0.000000 0.000000 0.000000 0.000000 0.000000 0.000000 0.000000 0.000000 0.000000 0.000000 0.000000 0.000000 0.000000 0.000000 0.000000 0.000000 0.000000 0.000000 0.000000 0.000000 0.000000 0.000000 0.000000 0.000000 0.000000 0.000000 0.000000 0.000000 0.000000 0.000000 0.000000 0.000000 0.000000 0.000000 0.000000 0.000000 0.000000 0.000000 0.000000 0.000000 0.000000 0.000000 0.000000 0.000000 0.000000 0.000000 0.000000 0.000000 0.000000 0.000000 0.000000 0.000000 0.000000 0.000000 0.000000 0.000000 0.000000 0.000000 0.000000 0.000000 0.000000 0.000000 0.000000 0.000000 0.000000 0.000000 0.000000 0.000000 0.000000 0.000000 0.000000 0.000000 0.000000 0.000000 0.000000 0.000000 0.000000 0.000000 0.000000 0.000000 0.000000 0.000000 0.000000 0.000000 0.000000 0.000000 0.000000 0.000000 0.000000 0.000000 0.000000 0.000000 0.000000 0.000000 0.000000 0.000000 0.000000 0.000000 0.000000 0.000000 0.000000 0.000000 0.000000 0.000000 0.000000 0.000000 0.000000 0.000000 0.000000 0.000000 0.000000 0.000000 0.000000 0.000000 0.000000 0.000000 0.000000 0.000000 0.000000 0.000000 0.000000 0.000000 0.000000 0.000000 0.000000 0.000000 0.000000 0.000000 0.000000 0.000000 0.000000 0.000000 0.000000 0.000000 0.000000 0.000000 0.000000 0.000000 0.000000 0.000000 0.000000 0.000000 0.000000 0.000000 0.000000 0.000000 0.000000 0.000000 0.000000 0.000000 0.000000 0.000000 0.000000 0.000000 0.000000 0.000000 0.000000 0.000000 0.000000 0.000000 0.000000 0.000000 0.000000 0.000000 0.000000 0.000000 0.000000 0.000000 0.000000 0.000000 0.000000 0.000000 0.000000 0.000000 0.000000 0.000000 0.000000 0.000000 0.000000 0.000000 0.000000 0.000000 0.000000 0.000000 0.000000 0.000000 0.000000 0.000000 0.000000 0.000000 0.000000 0.000000 0.000000 0.000000 0.000000 0.000000 0.000000 0.000000 0.000000 0.000000 0.000000 0.000000 0.000000 0.000000 0.000000 0.000000 0.000000 0.000000 0.000000 0.000000 0.000000 0.000000 0.000000 0.000000 0.000000 0.000000 0.000000 0.000000 0.000000 0.000000 0.000000 0.000000 0.000000 0.000000 0.000000 0.000000 0.000000 0.000000 0.000000 0.000000 0.000000 0.000000 0.000000 0.000000 0.000000 0.000000 0.000000 0.000000 0.000000 0.000000 0.000000 0.000000 0.000000 0.000000 0.000000 0.000000 0.000000 0.000000 0.000000 0.000000 0.000000 0.000000 0.000000 0.000000 0.000000 0.000000 0.000000 0.000000 0.000000 0.000000 0.000000 0.000000 0.000000 0.000000 0.000000 0.000000 0.000000 0.000000 0.000000 0.000000 0.000000 0.000000 0.000000 0.000000 0.000000 0.000000 0.000000 0.000000 0.000000 0.000000 0.000000 0.000000 0.000000 0.000000 0.000000 0.000000 0.000000 0.000000 0.000000 0.000000 0.000000 0.000000 0.000000 0.000000 0.000000 0.000000 0.000000 0.000000 0.000000 0.000000 0.000000 0.000000 0.000000 0.000000 0.000000 0.000000 0.000000 0.000000 0.000000 0.000000 0.000000 0.000000 0.000000 0.000000 0.000000 0.000000 0.000000 0.000000 0.000000 0.000000 0.000000 0.000000 0.000000 0.000000 0.000000 0.000000 0.000000 0.000000 0.000000 0.000000 0.000000 0.000000 0.000000 0.000000 0.000000 0.000000 0.000000 0.000000 0.000000 0.000000 0.000000 0.000000 0.000000 0.000000 0.000000 0.000000 0.000000 0.000000 0.000000 0.872446 1.018232 0.000000 1.069361 0.390361 0.000000 1.397630 -0.224569 0.000000 1.599320 -0.022504 0.000000 2.173646 0.170739 0.000000 2.132474 0.141668 0.000000 2.203595 -0.206450 0.000000 1.917445 -0.430335 0.000000 1.660802 -0.468904 0.000000 1.385967 -0.401801 0.000000 1.067210 -0.371987 0.000000 0.787572 -0.370168 0.000000 0.542952 -0.367713 0.000000 0.356308 -0.365137 0.000000 0.226129 -0.362432 0.000000 0.138990 -0.359493 0.000000 0.083462 -0.356738 0.000000 0.049229 -0.354429 0.000000 0.028899 -0.352651 0.000000 0.017437 -0.351368 0.000000 0.011600 -0.350522 0.000000 0.009349 -0.350087 0.000000 0.009350 -0.350126 0.000000 0.010587 -0.350820 0.000000 0.011972 -0.352482 0.000000 0.012217 -0.355505 0.000000 0.009843 -0.360116 0.000000 0.002182 -0.366381 0.000000 -0.011024 -0.373670 0.000000 -0.030090 -0.378840 0.000000 -0.063526 -0.381699 0.000000 -0.071561 -0.374995 0.000000 -0.139858 -0.354094 0.000000 -0.103998 -0.332392 0.000000 -0.148945 -0.261864 0.000000 -0.186704 -0.261697 0.000000 -0.135061 -0.197910 0.000000 -0.202593 -0.278405 0.000000 -0.309826 0.125308 0.000000 -0.347614 0.794559 0.000000 0.000000 0.000000 0.000000 0.000000 0.000000 0.000000 0.000000 0.000000 0.000000 0.000000 0.000000 0.000000 0.000000 0.000000 0.000000 0.000000 0.000000 0.000000 0.877239 0.250602 0.000000 0.952534 -0.535881 0.000000 1.273890 -0.231623 0.000000 1.811122 -0.171825 0.000000 2.197476 -0.171417 0.000000 1.882793 -0.644784 0.000000 2.291135 -0.191812 0.000000 2.024623 0.299928 0.000000 1.866183 0.430184 0.000000 1.476932 0.325860 0.000000 1.037292 0.187721 0.000000 0.730237 0.048519 0.000000 0.490518 -0.065267 0.000000 0.316019 -0.151636 0.000000 0.198863 -0.212145 0.000000 0.121933 -0.251852 0.000000 0.073400 -0.276586 0.000000 0.043517 -0.291400 0.000000 0.025715 -0.300075 0.000000 0.015589 -0.305174 0.000000 0.010314 -0.308377 0.000000 0.008096 -0.310783 0.000000 0.007730 -0.313119 0.000000 0.008294 -0.315850 0.000000 0.008824 -0.319189 0.000000 0.008338 -0.323005 0.000000 0.005924 -0.326606 0.000000 -0.000671 -0.328718 0.000000 -0.009884 -0.327266 0.000000 -0.021008 -0.318820 0.000000 -0.047116 -0.302199 0.000000 -0.034638 -0.275955 0.000000 -0.094070 -0.235527 0.000000 -0.039632 -0.190667 0.000000 -0.069605 -0.157663 0.000000 -0.160610 -0.116107 0.000000 0.070285 -0.106676 0.000000 -0.371115 0.027499 0.000000 0.255696 -0.499898 0.000000 -0.410476 0.312698 0.000000 0.000000 0.000000 0.000000 0.000000 0.000000 0.000000 0.000000 0.000000 0.000000 0.000000 0.000000 0.000000 0.000000 0.000000 0.000000 0.000000 0.000000 0.000000 -0.293753 -0.524466 0.000000 1.090141 -0.064562 0.000000 1.007988 -0.739465 0.000000 1.970470 -0.298811 0.000000 1.670586 -0.847644 0.000000 2.542058 0.076028 0.000000 2.846250 0.612443 0.000000 2.087150 0.298158 0.000000 1.614728 0.122560 0.000000 1.161211 0.034173 0.000000 0.862553 -0.009267 0.000000 0.598198 -0.082205 0.000000 0.385091 -0.191527 0.000000 0.239200 -0.288415 0.000000 0.146726 -0.358925 0.000000 0.088510 -0.405840 0.000000 0.052905 -0.435388 0.000000 0.031312 -0.453336 0.000000 0.018525 -0.464027 0.000000 0.011244 -0.470417 0.000000 0.007404 -0.474437 0.000000 0.005702 -0.477329 0.000000 0.005267 -0.479884 0.000000 0.005435 -0.482566 0.000000 0.005527 -0.485550 0.000000 0.004936 -0.488684 0.000000 0.003244 -0.491477 0.000000 -0.001244 -0.492969 0.000000 -0.006585 -0.491667 0.000000 -0.011308 -0.486636 0.000000 -0.030242 -0.475218 0.000000 -0.014514 -0.457806 0.000000 -0.047880 -0.436058 0.000000 -0.027780 -0.387608 0.000000 -0.023587 -0.393969 0.000000 -0.094720 -0.264874 0.000000 0.059259 -0.250259 0.000000 -0.163059 -0.154927 0.000000 -0.230425 0.043492 0.000000 -0.072676 0.032209 0.000000 0.000000 0.000000 0.000000 0.000000 0.000000 0.000000 0.000000 0.000000 0.000000 0.000000 0.000000 0.000000 0.000000 0.000000 0.000000 0.000000 0.000000 0.000000 0.717492 -0.535799 0.000000 0.396844 -1.031828 0.000000 1.550887 -0.721780 0.000000 1.449752 -0.877921 0.000000 2.481196 -0.319984 0.000000 2.626299 -0.455197 0.000000 4.245704 0.635467 0.000000 3.734115 3.779536 0.000000 2.965790 2.501623 0.000000 1.933764 1.476108 0.000000 1.105821 0.899041 0.000000 0.571177 0.421617 0.000000 0.298599 0.075438 0.000000 0.165200 -0.149044 0.000000 0.094644 -0.288647 0.000000 0.054942 -0.373323 0.000000 0.032205 -0.424293 0.000000 0.018874 -0.454617 0.000000 0.011115 -0.472547 0.000000 0.006731 -0.483255 0.000000 0.004416 -0.489968 0.000000 0.003369 -0.494705 0.000000 0.003057 -0.498694 0.000000 0.003079 -0.502595 0.000000 0.003030 -0.506589 0.000000 0.002553 -0.510280 0.000000 0.001515 -0.512861 0.000000 -0.001101 -0.513268 0.000000 -0.004122 -0.508462 0.000000 -0.004948 -0.498939 0.000000 -0.015667 -0.486218 0.000000 -0.004974 -0.449303 0.000000 -0.005368 -0.438174 0.000000 -0.019393 -0.398447 0.000000 0.027895 -0.323281 0.000000 0.015545 -0.323440 0.000000 0.009440 -0.237694 0.000000 0.079921 -0.097433 0.000000 0.015105 0.050322 0.000000 -0.296484 -0.123332 0.000000 0.000000 0.000000 0.000000 0.000000 0.000000 0.000000 0.000000 0.000000 0.000000 0.000000 0.000000 0.000000 0.000000 0.000000 0.000000 0.000000 0.000000 0.000000 0.493593 -1.035566 0.000000 0.499135 -1.013715 0.000000 1.693462 -0.955069 0.000000 1.152469 -1.432696 0.000000 3.050927 -0.534270 0.000000 2.888484 -1.469125 0.000000 0.000000 0.000000 0.000000 0.000000 0.000000 0.000000 0.000000 0.000000 0.000000 0.000000 0.000000 0.000000 0.000000 0.000000 0.000000 0.000000 0.000000 0.000000 0.589714 -0.967257 0.000000 0.416541 -1.124606 0.000000 1.292063 -1.415705 0.000000 1.426555 -1.559165 0.000000 2.615549 -1.396617 0.000000 4.217595 0.349902 0.000000 0.000000 0.000000 0.000000 0.000000 0.000000 0.000000 0.000000 0.000000 0.000000 0.000000 0.000000 0.000000 0.000000 0.000000 0.000000 0.000000 0.000000 0.000000 0.492523 -1.298001 0.000000 0.524859 -1.428043 0.000000 0.931235 -1.390215 0.000000 1.517343 -1.745250 0.000000 1.993504 -2.314791 0.000000 3.661091 -0.592249 0.000000 0.000000 0.000000 0.000000 0.000000 0.000000 0.000000 0.000000 0.000000 0.000000 0.000000 0.000000 0.000000 0.000000 0.000000 0.000000 0.000000 0.000000 0.000000 0.396077 -0.944315 0.000000 0.547142 -1.600963 0.000000 0.705132 -1.737112 0.000000 1.166852 -1.978973 0.000000 1.463950 -2.590945 0.000000 2.962214 -1.551815 0.000000 0.000000 0.000000 0.000000 0.000000 0.000000 0.000000 0.000000 0.000000 0.000000 0.000000 0.000000 0.000000 0.000000 0.000000 0.000000 0.000000 0.000000 0.000000 0.115789 -1.226737 0.000000 0.094132 -1.423076 0.000000 0.591414 -1.789885 0.000000 0.812746 -2.112784 0.000000 0.991753 -2.806920 0.000000 1.931303 -2.754910 0.000000 0.000000 0.000000 0.000000 0.000000 0.000000 0.000000 0.000000 0.000000 0.000000 0.000000 0.000000 0.000000 0.000000 0.000000 0.000000 0.000000 0.000000 0.000000 0.486111 -0.056129 0.000000 0.084204 -1.596762 0.000000 0.295771 -1.951883 0.000000 0.388992 -2.304355 0.000000 0.411011 -2.918189 0.000000 1.061510 -3.172844 0.000000 0.000000 0.000000 0.000000 0.000000 0.000000 0.000000 0.000000 0.000000 0.000000 0.000000 0.000000 0.000000 0.000000 0.000000 0.000000 0.000000 0.000000 0.000000 0.000000 0.000000 0.000000 0.000000 0.000000 0.000000 0.000000 0.000000 0.000000 0.000000 0.000000 0.000000 0.000000 0.000000 0.000000 0.000000 0.000000 0.000000 0.000000 0.000000 0.000000 0.000000 0.000000 0.000000 0.000000 0.000000 0.000000 0.000000 0.000000 0.000000 0.000000 0.000000 0.000000 0.000000 0.000000 0.000000 0.000000 0.000000 0.000000 0.000000 0.000000 0.000000 0.000000 0.000000 0.000000 0.000000 0.000000 0.000000 0.000000 0.000000 0.000000 0.000000 0.000000 0.000000 0.000000 0.000000 0.000000 0.000000 0.000000 0.000000 0.000000 0.000000 0.000000 0.000000 0.000000 0.000000 0.000000 0.000000 0.000000 0.000000 0.000000 0.000000 0.000000 0.000000 0.000000 0.000000 0.000000 0.000000 0.000000 0.000000 0.000000 0.000000 0.000000 0.000000 0.000000 0.000000 0.000000 0.000000 0.000000 0.000000 0.000000 0.000000 0.000000 0.000000 0.000000 0.000000 0.000000 0.000000 0.000000 0.000000 0.000000 0.000000 0.000000 0.000000 0.000000 0.000000 0.000000 0.000000 0.000000 0.000000 0.000000 0.000000 0.000000 0.000000 0.000000 0.000000 0.000000 0.000000 0.000000 0.000000 0.000000 0.000000 0.000000 0.000000 0.000000 0.000000 0.000000 0.000000 0.000000 0.000000 0.000000 0.000000 0.000000 0.000000 0.000000 0.000000 0.000000 0.000000 0.000000 0.000000 0.000000 0.000000 0.000000 0.000000 0.000000 0.000000 0.000000 0.000000 0.000000 0.000000 0.000000 0.000000 0.000000 0.000000 0.000000 0.000000 0.000000 0.000000 0.000000 0.000000 0.000000 0.000000 0.000000 0.000000 0.000000 0.000000 0.000000 0.000000 0.000000 0.000000 0.000000 0.000000 0.000000 0.000000 0.000000 0.000000 0.000000 0.000000 0.000000 0.000000 0.000000 0.000000 0.000000 0.000000 0.000000 0.000000 0.000000 0.000000 0.000000 0.000000 0.000000 0.000000 0.000000 0.000000 0.000000 0.000000 0.000000 0.000000 0.000000 0.000000 0.000000 0.000000 0.000000 0.000000 0.000000 0.000000 0.000000 0.000000 0.000000 0.000000 0.000000 0.000000 0.000000 0.000000 0.000000 0.000000 0.000000 0.000000 0.000000 0.000000 0.000000 0.000000 0.000000 0.000000 0.000000 0.000000 0.000000 0.000000 0.000000 0.000000 0.000000 0.000000 0.000000 0.000000 0.000000 0.000000 0.000000 0.000000 0.000000 0.000000 0.000000 0.000000 0.000000 0.000000 0.000000 0.000000 0.000000 0.000000 0.000000 0.000000 0.000000 0.000000 0.000000 0.000000 0.000000 0.000000 0.000000 0.000000 0.000000 0.000000 0.000000 0.000000 0.000000 0.000000 0.000000 0.000000 0.000000 0.000000 0.000000 0.000000 0.000000 0.000000 0.000000 0.000000 0.000000 0.000000 0.000000 0.000000 0.000000 0.000000 0.000000 0.000000 0.000000 0.000000 0.000000 0.000000 0.000000 0.000000 0.000000 0.000000 0.000000 0.000000 0.000000 0.000000 0.000000 0.000000 0.000000 0.000000 0.000000 0.000000 0.000000 0.000000 0.000000 0.000000 0.000000 0.000000 0.000000 0.000000 0.000000 0.000000 0.000000 0.000000 0.000000 0.000000 0.000000 0.000000 0.000000 0.000000 0.000000 0.000000 0.000000 0.000000 0.000000 0.000000 0.000000 0.000000 0.000000 0.000000 0.000000 0.000000 0.000000 0.000000 0.000000 0.000000 0.000000 0.000000 0.000000 0.000000 0.000000 0.000000 0.000000 0.000000 0.000000 0.000000 0.000000 0.000000 0.000000 0.000000 0.000000 0.000000 0.000000 0.000000 0.000000 0.000000 0.000000 0.000000 0.000000 0.000000 0.000000 0.000000 0.000000 0.000000 0.000000 0.000000 0.000000 0.000000 0.000000 0.000000 0.000000 0.000000 0.000000 0.000000 0.000000 0.000000 0.000000 0.000000 0.000000 0.000000 0.000000 0.000000 0.000000 0.000000 0.000000 0.000000 0.000000 0.000000 0.000000 0.000000 0.000000 0.000000 0.000000 0.000000 0.000000 0.000000 0.000000 0.000000 0.000000 0.000000 0.000000 0.000000 0.000000 0.000000 0.000000 0.000000 0.000000 0.000000 0.000000 0.000000 0.000000 0.000000 0.000000 0.000000 0.000000 0.000000 0.000000 0.000000 0.000000 0.000000 0.000000 0.000000 0.000000 0.000000 0.000000 0.000000 0.000000 0.000000 0.000000 0.000000 0.000000 0.000000 0.000000 0.000000 0.000000 0.000000 0.000000 0.000000 0.000000 0.000000 0.000000 0.000000 0.000000 0.000000 0.000000 0.000000 0.000000 0.000000 0.000000 0.000000 0.000000 0.000000 0.000000 0.000000 0.000000 0.000000 0.000000 0.000000 0.000000 0.000000 0.000000 0.000000 0.000000 0.000000 0.000000 0.000000 0.000000 0.000000 0.000000 0.000000 0.000000 0.000000 0.000000 0.000000 0.000000 0.000000 0.000000 0.000000 0.000000 0.000000 0.000000 0.000000 0.000000 0.000000 0.000000 0.000000 0.000000 0.000000 0.000000 0.000000 0.000000 0.000000 0.000000 0.000000 0.000000 0.000000 0.000000 0.000000 0.000000 0.000000 0.000000 0.000000 0.000000 0.000000 0.000000 0.000000 0.000000 0.000000 0.000000 0.000000 0.000000 0.000000 0.000000 0.000000 0.000000 0.000000 0.000000 0.000000 0.000000 0.000000 0.000000 0.000000 0.000000 0.000000 0.000000 0.000000 0.000000 0.000000 0.000000 0.000000 0.000000 0.000000 0.000000 0.000000 0.000000 0.000000 0.000000 0.000000 0.000000 0.000000 0.000000 0.000000 0.000000 0.000000 0.000000 0.000000 0.000000 0.000000 0.000000 0.000000 0.000000 0.000000 0.000000 0.000000 0.000000 0.000000 0.000000 0.000000 0.000000 0.000000 0.000000 0.000000 0.000000 0.000000 0.000000 0.000000 0.000000 0.000000 0.000000 0.000000 0.000000 0.000000 0.000000 0.000000 0.000000 0.000000 0.000000 0.000000 0.000000 0.000000 0.000000 0.000000 0.000000 0.000000 0.000000 0.000000 0.000000
</DataArray>
</PointData>
<Points>
<DataArray type="Float64" Name="Points" NumberOfComponents="3" format="ascii">